
                                 *****************
                                 * O   R   C   A *
                                 *****************

                                            #,                                       
                                            ###                                      
                                            ####                                     
                                            #####                                    
                                            ######                                   
                                           ########,                                 
                                     ,,################,,,,,                         
                               ,,#################################,,                 
                          ,,##########################################,,             
                       ,#########################################, ''#####,          
                    ,#############################################,,   '####,        
                  ,##################################################,,,,####,       
                ,###########''''           ''''###############################       
              ,#####''   ,,,,##########,,,,          '''####'''          '####       
            ,##' ,,,,###########################,,,                        '##       
           ' ,,###''''                  '''############,,,                           
         ,,##''                                '''############,,,,        ,,,,,,###''
      ,#''                                            '''#######################'''  
     '                                                          ''''####''''         
             ,#######,   #######,   ,#######,      ##                                
            ,#'     '#,  ##    ##  ,#'     '#,    #''#        ,####,    ,#,          
            ##       ##  ##   ,#'  ##            #'  '#       #'       ,# #          
            ##       ##  #######   ##           ,######,      #####,      #          
            '#,     ,#'  ##    ##  '#,     ,#' ,#      #,     #,   #      #          
             '#######'   ##     ##  '#######'  #'      '#     '####' #    #          



                #########################################################
                #                        -***-                          #
                #          Department of theory and spectroscopy        #
                #                                                       #
                #                      Frank Neese                      #
                #                                                       #
                #     Directorship, Architecture, Infrastructure        #
                #                    SHARK, DRIVERS                     #
                #        Core code/Algorithms in most modules           #
                #                                                       #
                #        Max Planck Institute fuer Kohlenforschung      #
                #                Kaiser Wilhelm Platz 1                 #
                #                 D-45470 Muelheim/Ruhr                 #
                #                      Germany                          #
                #                                                       #
                #                  All rights reserved                  #
                #                        -***-                          #
                #########################################################


                         Program Version 6.1.0  -  RELEASE   -
                                (GIT: $679e74b$)
                          ($2025-06-10 18:02:51 +0200$)


 With contributions from (in alphabetic order):
[Max-Planck-Institut fuer Kohlenforschung]                               
  Daniel Aravena         : Magnetic Suceptibility                        
  Michael Atanasov       : Ab Initio Ligand Field Theory (pilot matlab implementation)
  Alexander A. Auer      : GIAO ZORA, VPT2 properties, NMR spectrum      
  Ute Becker             : All parallelization in ORCA, NUMFREQ, NUMCALC 
  Giovanni Bistoni       : ED, misc. LED, open-shell LED, HFLD           
  Dmytro Bykov           : pre 5.0 version of the SCF Hessian            
  Marcos Casanova-Páez   : Triplet and SCS-CIS(D). UHF-(DLPNO)-IP/EA/STEOM-CCSD. UHF-CVS-IP/STEOM-CCSD   
  Vijay G. Chilkuri      : MRCI spin determinant printing, contributions to CSF-ICE 
  Pauline Colinet        : FMM embedding                                 
  Dipayan Datta          : RHF DLPNO-CCSD density                        
  Achintya Kumar Dutta   : EOM-CC, STEOM-CC                              
  Nicolas Foglia         : Exact transition moments, OPA infrastructure, MCD improvements    
  Dmitry Ganyushin       : Spin-Orbit,Spin-Spin,Magnetic field MRCI      
  Miquel Garcia-Rates    : C-PCM and meta-GGA Hessian, CCSD/C-PCM, Gaussian charge scheme 
  Tiago L. C. Gouveia    : GS-ROHF, GS-ROCIS                             
  Yang Guo               : DLPNO-NEVPT2, F12-NEVPT2, CIM, IAO-localization        
  Andreas Hansen         : Spin unrestricted coupled pair/coupled cluster methods 
  Ingolf Harden          : AUTO-CI MPn and infrastructure                
  Benjamin Helmich-Paris : MC-RPA, TRAH-(SCF,CASSCF), AVAS, COSX integrals, SCF dyn. polar., MC-PDFT, srDFT 
  Lee Huntington         : MR-EOM, pCC                                   
  Robert Izsak           : Overlap fitted RIJCOSX, COSX-SCS-MP3, EOM     
  Riya Kayal             : Wick's Theorem for AUTO-CI, AUTO-CI UHF-CCSDT 
  Emily Kempfer          : AUTO-CI RHF CISDT and CCSDT, approximate NEVPT4
  Christian Kollmar      : KDIIS, OOCD, Brueckner-CCSD(T), CCSD density, CASPT2, CASPT2-K, improved NEVPT2 
  Axel Koslowski         : Symmetry handling                             
  Simone Kossmann        : meta-GGA functionals, TD-DFT gradient, OOMP2, (MP2 Hessian; deprecated post 5.0) 
  Lucas Lang             : DCDCAS, Hyperfine gauge corrections, ICE-SOC+SSC
  Marvin Lechner         : AUTO-CI (C++ implementation), FIC-MRCC        
  Spencer Leger          : CASSCF response                               
  Dagmar Lenk            : GEPOL surface, SMD, ORCA-2-JSON               
  Dimitrios Liakos       : Extrapolation schemes; Compound Job, Property file
  Dimitrios Manganas     : Further ROCIS development; embedding schemes. LFT, Crystal Embedding 
  Dimitrios Pantazis     : SARC Basis sets                               
  Anastasios Papadopoulos: AUTO-CI, single reference methods and gradients 
  Taras Petrenko         : pre 6.0 DFT Hessian and TD-DFT gradient,  ECA, NRVS 
  Petra Pikulova         : Analytic Raman intensities                    
  Peter Pinski           : DLPNO-MP2, DLPNO-MP2 Gradient                 
  Shashank Vittal Rao    : ES-AILFT, MagRelax                            
  Christoph Reimann      : Effective Core Potentials                     
  Marius Retegan         : Local ZFS, SOC                                
  Christoph Riplinger    : Optimizer, TS searches, QM/MM, DLPNO-CCSD(T), (RO)-DLPNO pert. Triples 
  Michael Roemelt        : Original ROCIS implementation, recursive CI coupling coefficients
  Masaaki Saitow         : Open-shell DLPNO-CCSD energy and density      
  Barbara Sandhoefer     : DKH picture change effects                    
  Yorick L. A. Schmerwitz: GMF and freeze-and-release deltaSCF, NEB S-IDPP initial path                    
  Kantharuban Sivalingam : CASSCF convergence/infrastructure, NEVPT2, NEVPT3, NEVPT4(SD), FIC-MRCI and CEPA variants
  Bernardo de Souza      : ESD, SOC TD-DFT                               
  Georgi L. Stoychev     : AutoAux, RI-MP2 NMR, DLPNO-MP2 response, X2C  
  Van Anh Tran           : RI-MP2 g-tensors                              
  Willem Van den Heuvel  : Paramagnetic NMR                              
  Zikuan Wang            : NOTCH, Electric field optimization            
  Frank Wennmohs         : Technical directorship and infrastructure     
  Hang Xu                : AUTO-CI-Response properties                   
                                                                         
[FACCTs GmbH]                                                            
  Markus Bursch, Nicolas Foglia, Miquel Garcia-Rates, Ingolf Harden, Hagen Neugebauer, Anastasios Papadopoulos, 
  Christoph Riplinger, Bernardo de Souza, Georgi L. Stoychev                                                    
                                                                 
  APM, various basis sets, CI-OPT, improved COSX, DLPNO-Multilevel,           
  DOCKER, DRACO, updates on ESD, Fragmentator, GOAT, IRC, LR-CPCM, L-BFGS, MBIS, meta-GGA TD-DFT gradient, ML-optimized integration grids, 
  MM, NACMEs, nearIR, NEB, NEB-TS, NL-DFT gradient (VV10), 2- and 3-layer-ONIOM, interface openCOSMO-RS, QMMM,   
  Crystal-QMMM, RESP, rigid body optimization, SF, symmetry and pop. for TD-DFT, various functionals, SOLVATOR                                   
                                                                         
[Other institutions]                                                     
  V. Asgeirsson          : NEB                                           
  Christoph Bannwarth    : sTDA-DFT, sTD-DFT, PBEh-3c, B97-3c, D3        
  Giovanni Bistoni       : ETS/NOCV, ADLD/ADEX, COVALED                  
  Martin Brehm           : Molecular dynamics                            
  Ronald Cardenas        : ETS/NOCV                                      
  Martina Colucci        : COVALED                                       
  Sebastian Ehlert       : rSCAN, r2SCAN, r2SCAN-3c, D4, dhf basis sets  
  Marvin Friede          : D4 for Fr, Ra, Ac-Lr                          
  Lars Goerigk           : TD-DFT with DH, B97 family of functionals     
  Stefan Grimme          : VdW corrections, initial TS optimization, DFT functionals, gCP, sTDA/sTD-DF 
  Waldemar Hujo          : DFT-NL                                        
  H. Jonsson             : NEB                                           
  Holger Kruse           : gCP                                           
  Marcel Mueller         : wB97X-3c, vDZP basis set                      
  Hagen Neugebauer       : wr2SCAN, Native XTB                           
  Gianluca Regni         : ADLD/ADEX                                     
  Tobias Risthaus        : pre 6.0 range-separated hybrid DFT and stability analysis
  Lukas Wittmann         : regularized MP2, r2SCAN double-hybrids, wr2SCAN        
                                                                         
We gratefully acknowledge several colleagues who have allowed us to      
interface, adapt or use parts of their codes:                            
  Ed Valeev, F. Pavosevic, A. Kumar             : LibInt (2-el integral package), F12 methods 
  Garnet Chan, S. Sharma, J. Yang, R. Olivares  : DMRG                   
  Ulf Ekstrom                                   : XCFun DFT Library      
  Mihaly Kallay                                 : mrcc  (arbitrary order and MRCC methods)
  Frank Weinhold                                : gennbo (NPA and NBO analysis)           
  Simon Mueller                                 : openCOSMO-RS                            
  Christopher J. Cramer and Donald G. Truhlar   : smd solvation model                     
  S Lehtola, MJT Oliveira, MAL Marques          : LibXC Library                           
  Liviu Ungur et al                             : ANISO software                          


 Your calculation uses the libint2 library for the computation of 2-el integrals
 For citations please refer to: http://libint.valeyev.net

 Your ORCA version has been built with support for libXC version: 7.0.0
 For citations please refer to: https://libxc.gitlab.io

 This ORCA versions uses:
   CBLAS   interface :  Fast vector & matrix operations
   LAPACKE interface :  Fast linear algebra routines
   SCALAPACK package :  Parallel linear algebra routines
   Shared memory     :  Shared parallel matrices
   BLAS/LAPACK       :  OpenBLAS 0.3.29  USE64BITINT DYNAMIC_ARCH NO_AFFINITY SkylakeX SINGLE_THREADED
        Core in use  :  SkylakeX
   Copyright (c) 2011-2014, The OpenBLAS Project


  ***********************************
  * Starting time: Wed Dec 10 15:42:19 2025
  * Host name:     Jhonnytest
  * Process ID:    28260
  * Working dir.:  /home/jhonapontee/Group-theory/Proyecto/D3d/CASPT2
  ***********************************

================================================================================

----- Orbital basis set information -----
Your calculation utilizes the basis: def2-SVP
   F. Weigend and R. Ahlrichs, Phys. Chem. Chem. Phys. 7, 3297 (2005).

================================================================================
                                        WARNINGS
                       Please study these warnings very carefully!
================================================================================


WARNING: CASSCF multiplicity blocks not in descending order!
       : This is important for any CASSCF property run ...
 ===>  : Re-ordering the multiplicity blocks, nroots, irreps and alike!

IMPORTANT NOTE: CASSCF must signal convergence for a subsequent CASPT2/NEVPT2! 
                Set maxiter=1 to run CASPT2/NEVPT2 with arbitrary orbitals.


================================================================================
                                       INPUT FILE
================================================================================
NAME = caspt2.inp
|  1> ! def2-SVP TightSCF
|  2> ! CASSCF
|  3> 
|  4> ! MORead
|  5> 
|  6> %moinp "d3d-triplete.gbw"
|  7> 
|  8> %casscf
|  9>   nel 2       
| 10>   norb 2         
| 11>   mult 1,3       
| 12>   nroots 1,1     
| 13>   PTMethod FIC_CASPT2   
| 14> end
| 15> 
| 16> * xyz 0 3
| 17> C   0.00000   0.00000 -1.75000
| 18> H   1.08250   0.00000 -1.75000
| 19> H  -0.54125   0.93740 -1.75000
| 20> H  -0.54125  -0.93740 -1.75000
| 21> 
| 22> C   0.00000   0.00000  1.75000
| 23> H   0.54125   0.93740  1.75000
| 24> H  -1.08250   0.00000  1.75000
| 25> H   0.54125  -0.93740  1.75000
| 26> *
| 27> 
| 28>                          ****END OF INPUT****
================================================================================

                       ****************************
                       * Single Point Calculation *
                       ****************************

---------------------------------
CARTESIAN COORDINATES (ANGSTROEM)
---------------------------------
  C      0.000000    0.000000   -1.750000
  H      1.082500    0.000000   -1.750000
  H     -0.541250    0.937400   -1.750000
  H     -0.541250   -0.937400   -1.750000
  C      0.000000    0.000000    1.750000
  H      0.541250    0.937400    1.750000
  H     -1.082500    0.000000    1.750000
  H      0.541250   -0.937400    1.750000

----------------------------
CARTESIAN COORDINATES (A.U.)
----------------------------
  NO LB      ZA    FRAG     MASS         X           Y           Z
   0 C     6.0000    0    12.011    0.000000    0.000000   -3.307021
   1 H     1.0000    0     1.008    2.045629    0.000000   -3.307021
   2 H     1.0000    0     1.008   -1.022814    1.771429   -3.307021
   3 H     1.0000    0     1.008   -1.022814   -1.771429   -3.307021
   4 C     6.0000    0    12.011    0.000000    0.000000    3.307021
   5 H     1.0000    0     1.008    1.022814    1.771429    3.307021
   6 H     1.0000    0     1.008   -2.045629    0.000000    3.307021
   7 H     1.0000    0     1.008    1.022814   -1.771429    3.307021

--------------------------------
INTERNAL COORDINATES (ANGSTROEM)
--------------------------------
 C      0   0   0     0.000000000000     0.00000000     0.00000000
 H      1   0   0     1.082500000000     0.00000000     0.00000000
 H      1   2   0     1.082437214115   120.00191878     0.00000000
 H      1   2   3     1.082437214115   120.00191878   180.00000000
 C      1   2   3     3.500000000000    90.00000000   270.00000000
 H      5   1   2     1.082437214115    90.00000000    59.99808122
 H      5   1   2     1.082500000000    90.00000000   180.00000000
 H      5   1   2     1.082437214115    90.00000000   300.00191878

---------------------------
INTERNAL COORDINATES (A.U.)
---------------------------
 C      0   0   0     0.000000000000     0.00000000     0.00000000
 H      1   0   0     2.045628539970     0.00000000     0.00000000
 H      1   2   0     2.045509891841   120.00191878     0.00000000
 H      1   2   3     2.045509891841   120.00191878   180.00000000
 C      1   2   3     6.614041468724    90.00000000   270.00000000
 H      5   1   2     2.045509891841    90.00000000    59.99808122
 H      5   1   2     2.045628539970    90.00000000   180.00000000
 H      5   1   2     2.045509891841    90.00000000   300.00191878

---------------------
BASIS SET INFORMATION
---------------------
There are 2 groups of distinct atoms

 Group   1 Type C   : 7s4p1d contracted to 3s2p1d pattern {511/31/1}
 Group   2 Type H   : 4s1p contracted to 2s1p pattern {31/1}

Atom   0C    basis set group =>   1
Atom   1H    basis set group =>   2
Atom   2H    basis set group =>   2
Atom   3H    basis set group =>   2
Atom   4C    basis set group =>   1
Atom   5H    basis set group =>   2
Atom   6H    basis set group =>   2
Atom   7H    basis set group =>   2
------------------------------------------------------------------------------
                             ORCA STARTUP CALCULATIONS
------------------------------------------------------------------------------
------------------------------------------------------------------------------
                   ___                                                        
                  /   \      - P O W E R E D   B Y -                         
                 /     \                                                     
                 |  |  |   _    _      __       _____    __    __             
                 |  |  |  | |  | |    /  \     |  _  \  |  |  /  |          
                  \  \/   | |  | |   /    \    | | | |  |  | /  /          
                 / \  \   | |__| |  /  /\  \   | |_| |  |  |/  /          
                |  |  |   |  __  | /  /__\  \  |    /   |      \           
                |  |  |   | |  | | |   __   |  |    \   |  |\   \          
                \     /   | |  | | |  |  |  |  | |\  \  |  | \   \       
                 \___/    |_|  |_| |__|  |__|  |_| \__\ |__|  \__/        
                                                                              
                      - O R C A' S   B I G   F R I E N D -                    
                                      &                                       
                       - I N T E G R A L  F E E D E R -                       
                                                                              
 v1 FN, 2020, v2 2021, v3 2022-2024                                           
------------------------------------------------------------------------------


----------------------
SHARK INTEGRAL PACKAGE
----------------------

Number of atoms                             ...      8
Number of basis functions                   ...     58
Number of shells                            ...     30
Maximum angular momentum                    ...      2
Integral batch strategy                     ... SHARK/LIBINT Hybrid
RI-J (if used) integral strategy            ... SPLIT-RIJ (Revised 2003 algorithm where possible)
Printlevel                                  ...      1
Contraction scheme used                     ... SEGMENTED contraction
Prescreening option                         ... SCHWARTZ
   Thresh                                   ... 2.500e-11
   Tcut                                     ... 2.500e-12
   Tpresel                                  ... 2.500e-12 
Coulomb Range Separation                    ... NOT USED
Exchange Range Separation                   ... NOT USED
Multipole approximations                    ... NOT USED
Finite Nucleus Model                        ... NOT USED
CABS basis                                  ... NOT available
Auxiliary Coulomb fitting basis             ... NOT available
Auxiliary J/K fitting basis                 ... NOT available
Auxiliary Correlation fitting basis         ... NOT available
Auxiliary 'external' fitting basis          ... NOT available

Checking pre-screening integrals            ... done (  0.0 sec) Dimension = 30
   => SHARK Basis and OBASIS are compatible. Storing Pre-screening
Shell pair information
Shell pair cut-off parameter TPreSel        ...   2.5e-12
Total number of shell pairs                 ...       465
Shell pairs after pre-screening             ...       458
Total number of primitive shell pairs       ...      1529
Primitive shell pairs kept                  ...      1260
          la=0 lb=0:    170 shell pairs
          la=1 lb=0:    174 shell pairs
          la=1 lb=1:     55 shell pairs
          la=2 lb=0:     36 shell pairs
          la=2 lb=1:     20 shell pairs
          la=2 lb=2:      3 shell pairs

Checking whether 4 symmetric matrices of dimension 58 fit in memory
:Max Core in MB      =   4096.00
 MB in use           =      1.76
 MB left             =   4094.24
 MB needed           =      0.05
 Data fit in memory  = YES
Calculating Nuclear repulsion               ... done (  0.0 sec) ENN=     31.187995876316 Eh

Diagonalization of the overlap matrix:
Smallest eigenvalue                        ... 1.926e-02
Time for diagonalization                   ...    0.004 sec
Threshold for overlap eigenvalues          ... 1.000e-07
Number of eigenvalues below threshold      ... 0
Time for construction of square roots      ...    0.001 sec
Total time needed                          ...    0.005 sec

-------------------
DFT GRID GENERATION
-------------------

General Integration Accuracy     IntAcc      ... 4.388
Radial Grid Type                 RadialGrid  ... OptM3 with GC (2021)
Angular Grid (max. ang.)         AngularGrid ... 4 (Lebedev-302)
Angular grid pruning method      GridPruning ... 4 (adaptive)
Weight generation scheme         WeightScheme... mBecke (2022)
Basis function cutoff            BFCut       ... 1.0000e-11
Integration weight cutoff        WCut        ... 1.0000e-14
Partially contracted basis set               ... off
Rotationally invariant grid construction     ... off
Angular grids for H and He will be reduced by one unit

Total number of grid points                  ...    31954
Total number of batches                      ...      504
Average number of points per batch           ...       63
Average number of grid points per atom       ...     3994
Grids setup in   0.1 sec
Initializing property integral containers    ... done (  0.0 sec)

SHARK setup successfully completed in   0.2 seconds

Maximum memory used throughout the entire STARTUP-calculation: 11.4 MB
-------------------------------------------------------------------------------
                                 ORCA GUESS
                   Start orbitals & Density for SCF / CASSCF
-------------------------------------------------------------------------------

------------
SCF SETTINGS
------------
Hamiltonian:
 Ab initio Hamiltonian  Method          .... Hartree-Fock(GTOs)


General Settings:
 Integral files         IntName         .... caspt2
 Hartree-Fock type      HFTyp           .... CASSCF
 Total Charge           Charge          ....    0
 Multiplicity           Mult            ....    3
 Number of Electrons    NEL             ....   18
 Basis Dimension        Dim             ....   58
 Nuclear Repulsion      ENuc            ....     31.1879958763 Eh

---------------------
INITIAL GUESS: MOREAD
---------------------
Guess MOs are being read from file: d3d-triplete.gbw
Input geometry compatible with but different from current geometry
Input basis set matches current basis set (good)
Occupation numbers will be reassigned to an Aufbau configuration
MOs were renormalized
Gram-Schmidt orthogonalization of all MOs with pivot on actives
                      ------------------
                      INITIAL GUESS DONE (   0.0 sec)
                      ------------------
             **** ENERGY FILE WAS UPDATED (caspt2.en.tmp) ****
Finished Guess after   0.0 sec
Maximum memory used throughout the entire GUESS-calculation: 4.2 MB
-------------------------------------------------------------------------------
                              ORCA-CASSCF
-------------------------------------------------------------------------------

Building the CAS space              ... done (1 configurations for Mult=3)
Building the CAS space              ... done (3 configurations for Mult=1)
Memory for address arrays  		      ... done
Make address arrays			      ... done
Memory for buffers 			      ... done
Setting up spin-function prototypes	      ... (MAXOPEN=2) 2 4 done
Trivial cases - DOMO's			      ... done (  0.0 MB)
Number of open shells			    ...  2
domo->virtual excitations			... done (  0.0 MB)
domo->somo excitations				... done (  0.0 MB)
somo->virtual excitations			... done (  0.0 MB)
somo->somo excitations				... done (  0.0 MB)
Coupling container construction done
Memory for address arrays  		      ... done
Make address arrays			      ... done
Memory for buffers 			      ... done
Setting up spin-function prototypes	      ... (MAXOPEN=2) 0 2 4 done
Trivial cases - DOMO's			      ... done (  0.0 MB)
Number of open shells			    ...  0
domo->virtual excitations			... done (  0.0 MB)
domo->somo excitations				... done (  0.0 MB)
somo->virtual excitations			... done (  0.0 MB)
somo->somo excitations				... done (  0.0 MB)
Number of open shells			    ...  2
domo->virtual excitations			... done (  0.0 MB)
domo->somo excitations				... done (  0.0 MB)
somo->virtual excitations			... done (  0.0 MB)
somo->somo excitations				... done (  0.0 MB)
Coupling container construction done

 CASSCF (estimated) memory needed     ... 0.3 MB
 CASPT2 (estimated) memory needed     ... 0.9 MB 


SYSTEM-SPECIFIC SETTINGS:
Number of active electrons          ...    2
Number of active orbitals           ...    2
Total number of electrons           ...   18
Total number of orbitals            ...   58

Determined orbital ranges:
   Internal       0 -    7 (   8 orbitals)
   Active         8 -    9 (   2 orbitals)
   External      10 -   57 (  48 orbitals)
Number of rotation parameters      ...    496

CI-STEP:
CI strategy                         ... General CI
Number of multiplicity blocks       ...    2
BLOCK  0 WEIGHT=   0.5000
  Multiplicity                      ...    3
  #(Configurations)                 ...    1
  #(CSFs)                           ...    1
  #(Roots)                          ...    1
    ROOT=0 WEIGHT=    0.500000

BLOCK  1 WEIGHT=   0.5000
  Multiplicity                      ...    1
  #(Configurations)                 ...    3
  #(CSFs)                           ...    3
  #(Roots)                          ...    1
    ROOT=0 WEIGHT=    0.500000

  PrintLevel                        ...    1
  N(GuessMat)                       ...      2048
  MaxDim(CI)                        ...        10
  MaxIter(CI)                       ...        64
  Energy Tolerance CI               ...  2.50e-09
  Residual Tolerance CI             ...  2.50e-09
  Shift(CI)                         ...  1.00e-04

INTEGRAL-TRANSFORMATION-STEP:
  Algorithm                         ... EXACT

ORBITAL-IMPROVEMENT-STEP:
  Algorithm                         ... SuperCI(PT)
  Default Parametrization           ... CAYLEY
  Act-Act rotations                 ... depends on algorithm used

  Note: SuperCI(PT) will ignore FreezeIE, FreezeAct and FreezeGrad. In general Default settings are encouraged.
        In conjunction with ShiftUp, ShiftDn or GradScaling the performance of SuperCI(PT) is less optimal.  

  MaxRot                            ... 2.00e-01 
  Max. no of vectors (DIIS)         ... 15
  DThresh (cut-off) metric          ... 1.00e-06
  Switch step at gradient           ...  3.00e-02 
  Switch step at iteration          ...        50   
  Switch step to                    ... SuperCI(PT)    

SCF-SETTINGS:
  Incremental                       ... on
  RIJCOSX approximation             ... off
  RI-JK approximation               ... off
  AO integral handling              ... DIRECT
  Integral Neglect Thresh           ...  2.50e-11
  Primitive cutoff TCut             ...  2.50e-12
  Energy convergence tolerance      ...  2.50e-08
  Orbital gradient convergence      ...  2.50e-04
  Max. number of iterations         ...        75  

PT2-SETTINGS:
  A PT2 calculation will be performed on top of the CASSCF wave function (PT2 = CASPT2)   
  CASPT2 Real Levelshift            ...  0.00e+00
  CASPT2 Im.  Levelshift            ...  0.00e+00
  CASPT2 IPEA Levelshift            ...  0.00e+00
 CI step strategy                   ... General CI
  D4C handling                      ... PS approximation (factorized) 
  CI truncation for D4C at          ...  1.00e-12
  CI truncation for D3  at          ...  1.00e-14
  Orbitals                          ... canonical for each state 
  Last  frozen  orbital             ... 1
  First deleted orbital             ... 58

FINAL ORBITALS:
  Active   Orbitals                 ... natural 
  Internal Orbitals                 ... canonical 
  External Orbitals                 ... canonical 

------------------
CAS-SCF ITERATIONS
------------------


MACRO-ITERATION   1: 
   --- Inactive Energy E0 = -78.04490737 Eh
CI-ITERATION   0: 
   -78.914194726   0.000000000000 (    0.00)
   CI-PROBLEM SOLVED
   DENSITIES MADE
CI-ITERATION   0: 
   -78.919165243   0.000000000000 (    0.00)
   CI-PROBLEM SOLVED
   DENSITIES MADE

                 <<<<<<<<<<<<<<<<<<INITIAL CI STATE CHECK>>>>>>>>>>>>>>>>>>

BLOCK  0 MULT= 3 NROOTS= 1 
ROOT   0:  E=     -78.9141947256 Eh
      1.00000 [     0]: 11

BLOCK  1 MULT= 1 NROOTS= 1 
ROOT   0:  E=     -78.9191652432 Eh
      0.62698 [     0]: 20
      0.37302 [     2]: 02

                 <<<<<<<<<<<<<<<<<<INITIAL CI STATE CHECK>>>>>>>>>>>>>>>>>>

   E(CAS)=   -78.916679984 Eh DE=    0.000000e+00
   --- Energy gap subspaces: Ext-Act = 0.239   Act-Int = 0.422
   N(occ)=  1.12698 0.87302
   ||g|| =     1.276409e+00 Max(G)=   -3.806463e-01 Rot=25,6
   --- Orbital Update [SuperCI(PT)]
   --- Canonicalize Internal Space
   --- Canonicalize External Space
   --- SX_PT (Skipped TA=0 IT=0): ||X|| =      0.185672465 Max(X)(25,6) =      0.065556329 
   --- SFit(Active Orbitals)

MACRO-ITERATION   2: 
   --- Inactive Energy E0 = -78.11831447 Eh
CI-ITERATION   0: 
   -79.042954347   0.000000000000 (    0.00)
   CI-PROBLEM SOLVED
   DENSITIES MADE
CI-ITERATION   0: 
   -79.047401919   0.000000000000 (    0.00)
   CI-PROBLEM SOLVED
   DENSITIES MADE
   E(CAS)=   -79.045178133 Eh DE=   -1.284981e-01
   --- Energy gap subspaces: Ext-Act = 0.269   Act-Int = 0.427
   N(occ)=  1.12422 0.87578
   ||g|| =     3.237978e-01 Max(G)=    1.085228e-01 Rot=26,7
   --- Orbital Update [SuperCI(PT)]
   --- Canonicalize Internal Space
   --- Canonicalize External Space
   --- SX_PT (Skipped TA=0 IT=0): ||X|| =      0.059953188 Max(X)(15,7) =      0.019747304 
   --- SFit(Active Orbitals)

MACRO-ITERATION   3: 
   --- Inactive Energy E0 = -78.15618268 Eh
CI-ITERATION   0: 
   -79.054715135   0.000000000000 (    0.00)
   CI-PROBLEM SOLVED
   DENSITIES MADE
CI-ITERATION   0: 
   -79.059351352   0.000000000000 (    0.00)
   CI-PROBLEM SOLVED
   DENSITIES MADE
   E(CAS)=   -79.057033243 Eh DE=   -1.185511e-02
   --- Energy gap subspaces: Ext-Act = 0.257   Act-Int = 0.433
   N(occ)=  1.12405 0.87595
   ||g|| =     8.383655e-02 Max(G)=    2.351622e-02 Rot=14,7
   --- Orbital Update [SuperCI(PT)]
   --- Canonicalize Internal Space
   --- Canonicalize External Space
   --- SX_PT (Skipped TA=0 IT=0): ||X|| =      0.017581373 Max(X)(15,7) =      0.004847668 
   --- SFit(Active Orbitals)

MACRO-ITERATION   4: 
   --- Inactive Energy E0 = -78.14795503 Eh
CI-ITERATION   0: 
   -79.055520293   0.000000000000 (    0.00)
   CI-PROBLEM SOLVED
   DENSITIES MADE
CI-ITERATION   0: 
   -79.060087240   0.000000000000 (    0.00)
   CI-PROBLEM SOLVED
   DENSITIES MADE
   E(CAS)=   -79.057803766 Eh DE=   -7.705231e-04
   --- Energy gap subspaces: Ext-Act = 0.261   Act-Int = 0.431
   N(occ)=  1.12401 0.87599
   ||g|| =     1.427112e-02 Max(G)=   -4.411219e-03 Rot=34,3
   --- Orbital Update [SuperCI(PT)]
   --- Canonicalize Internal Space
   --- Canonicalize External Space
   --- SX_PT (Skipped TA=0 IT=0): ||X|| =      0.002586998 Max(X)(15,7) =      0.001061329 
   --- SFit(Active Orbitals)

MACRO-ITERATION   5: 
   --- Inactive Energy E0 = -78.14786786 Eh
CI-ITERATION   0: 
   -79.055542491   0.000000000000 (    0.00)
   CI-PROBLEM SOLVED
   DENSITIES MADE
CI-ITERATION   0: 
   -79.060110727   0.000000000000 (    0.00)
   CI-PROBLEM SOLVED
   DENSITIES MADE
   E(CAS)=   -79.057826609 Eh DE=   -2.284247e-05
   --- Energy gap subspaces: Ext-Act = 0.261   Act-Int = 0.431
   N(occ)=  1.12405 0.87595
   ||g|| =     1.262387e-03 Max(G)=    2.908898e-04 Rot=28,5
   --- Orbital Update [SuperCI(PT)]
   --- Canonicalize Internal Space
   --- Canonicalize External Space
   --- SX_PT (Skipped TA=0 IT=0): ||X|| =      0.000216223 Max(X)(20,6) =     -0.000063877 
   --- SFit(Active Orbitals)

MACRO-ITERATION   6: 
   --- Inactive Energy E0 = -78.14797158 Eh
CI-ITERATION   0: 
   -79.055542148   0.000000000000 (    0.00)
   CI-PROBLEM SOLVED
   DENSITIES MADE
CI-ITERATION   0: 
   -79.060111344   0.000000000000 (    0.00)
   CI-PROBLEM SOLVED
   DENSITIES MADE
   E(CAS)=   -79.057826746 Eh DE=   -1.373611e-07
   --- Energy gap subspaces: Ext-Act = 0.261   Act-Int = 0.431
   N(occ)=  1.12404 0.87596
   ||g|| =     1.792942e-04 Max(G)=    3.894906e-05 Rot=23,1
                     ---- THE CAS-SCF GRADIENT HAS CONVERGED ----
                            --- FINALIZING ORBITALS ---
                    ---- DOING ONE FINAL ITERATION FOR PRINTING ----
   --- Canonicalize Internal Space
   --- Canonicalize External Space

MACRO-ITERATION   7: 
   --- Inactive Energy E0 = -78.14797158 Eh
   --- All densities will be recomputed
CI-ITERATION   0: 
   -79.055542148   0.000000000000 (    0.00)
   CI-PROBLEM SOLVED
   DENSITIES MADE
CI-ITERATION   0: 
   -79.060111344   0.000000000000 (    0.00)
   CI-PROBLEM SOLVED
   DENSITIES MADE
   E(CAS)=   -79.057826746 Eh DE=    7.858603e-11
   --- Energy gap subspaces: Ext-Act = 0.255   Act-Int = 0.431
   N(occ)=  1.12404 0.87596
   ||g|| =     1.792948e-04 Max(G)=    4.530079e-05 Rot=28,4
--------------
CASSCF RESULTS
--------------

Final CASSCF energy       : -79.057826746 Eh   -2151.2728 eV

----------------
ORBITAL ENERGIES
----------------

  NO   OCC          E(Eh)            E(eV) 
   0   2.0000     -11.228520      -305.5436 
   1   2.0000     -11.228480      -305.5425 
   2   2.0000      -0.887639       -24.1539 
   3   2.0000      -0.881830       -23.9958 
   4   2.0000      -0.570649       -15.5281 
   5   2.0000      -0.570646       -15.5281 
   6   2.0000      -0.566978       -15.4283 
   7   2.0000      -0.566976       -15.4282 
   8   1.1240      -0.135727        -3.6933 
   9   0.8760      -0.067143        -1.8271 
  10   0.0000       0.188260         5.1228 
  11   0.0000       0.226120         6.1530 
  12   0.0000       0.268845         7.3157 
  13   0.0000       0.268854         7.3159 
  14   0.0000       0.277521         7.5517 
  15   0.0000       0.277526         7.5519 
  16   0.0000       0.584858        15.9148 
  17   0.0000       0.603591        16.4246 
  18   0.0000       0.603622        16.4254 
  19   0.0000       0.651456        17.7270 
  20   0.0000       0.651488        17.7279 
  21   0.0000       0.693948        18.8833 
  22   0.0000       0.717278        19.5181 
  23   0.0000       0.859409        23.3857 
  24   0.0000       0.883856        24.0510 
  25   0.0000       0.941641        25.6234 
  26   0.0000       0.941662        25.6239 
  27   0.0000       0.947161        25.7736 
  28   0.0000       0.947185        25.7742 
  29   0.0000       0.985060        26.8048 
  30   0.0000       1.464158        39.8418 
  31   0.0000       1.464174        39.8422 
  32   0.0000       1.464488        39.8507 
  33   0.0000       1.464503        39.8512 
  34   0.0000       1.747395        47.5490 
  35   0.0000       1.747402        47.5492 
  36   0.0000       1.860088        50.6156 
  37   0.0000       1.860150        50.6173 
  38   0.0000       1.900273        51.7091 
  39   0.0000       1.900333        51.7107 
  40   0.0000       1.997594        54.3573 
  41   0.0000       2.078003        56.5453 
  42   0.0000       2.156353        58.6773 
  43   0.0000       2.169690        59.0403 
  44   0.0000       2.551849        69.4393 
  45   0.0000       2.551856        69.4395 
  46   0.0000       2.551888        69.4404 
  47   0.0000       2.551895        69.4406 
  48   0.0000       2.555747        69.5454 
  49   0.0000       2.555783        69.5464 
  50   0.0000       2.556446        69.5644 
  51   0.0000       2.556482        69.5654 
  52   0.0000       3.194685        86.9318 
  53   0.0000       3.213794        87.4518 
  54   0.0000       3.280532        89.2678 
  55   0.0000       3.280618        89.2701 
  56   0.0000       3.283657        89.3529 
  57   0.0000       3.283744        89.3552 


---------------------------------------------
CAS-SCF STATES FOR BLOCK  0 MULT= 3 NROOTS= 1
---------------------------------------------

ROOT   0:  E=     -79.0555421479 Eh
      1.00000 [     0]: 11


---------------------------------------------
CAS-SCF STATES FOR BLOCK  1 MULT= 1 NROOTS= 1
---------------------------------------------

ROOT   0:  E=     -79.0601113443 Eh
      0.62404 [     0]: 20
      0.37596 [     2]: 02


-----------------------------
SA-CASSCF TRANSITION ENERGIES
------------------------------

LOWEST ROOT (ROOT 0 ,MULT 1) =    -79.060111344 Eh -2151.335 eV

STATE   ROOT MULT  DE/a.u.    DE/eV    DE/cm**-1
   1:    0    3   0.004569     0.124   1002.8


--------------
DENSITY MATRIX
--------------

                  0          1    
      0       1.124044   0.000000
      1       0.000000   0.875956
Trace of the electron density:  2.000000
Extracting Spin-Density from 2-RDM (MULT=3) ... done
Extracting Spin-Density from 2-RDM (MULT=1) ... done

-------------------
SPIN-DENSITY MATRIX
-------------------

                  0          1    
      0       0.500000   0.000000
      1       0.000000   0.500000
Trace of the spin density:  1.000000

-----------------
ENERGY COMPONENTS
-----------------

One electron energy          :   -166.743053148 Eh       -4537.3091 eV
Two electron energy          :     56.497230525 Eh        1537.3678 eV
Nuclear repulsion energy     :     31.187995876 Eh         848.6685 eV
                               ----------------
                                  -79.057826746

Kinetic energy               :     78.524221713 Eh        2136.7527 eV
Potential energy             :   -157.582048459 Eh       -4288.0255 eV
Virial ratio                 :     -2.006795420 
                               ----------------
                                  -79.057826746

Core energy                  :    -78.147971579 Eh    -2126.5144 eV


----------------------------
LOEWDIN ORBITAL-COMPOSITIONS
----------------------------

                      0         1         2         3         4         5   
                 -11.22852 -11.22848  -0.88764  -0.88183  -0.57065  -0.57065
                   2.00000   2.00000   2.00000   2.00000   2.00000   2.00000
                  --------  --------  --------  --------  --------  --------
 0 C  s              49.8      49.8      23.7      23.7       0.0       0.0
 0 C  px              0.0       0.0       0.0       0.0       0.0      26.5
 0 C  py              0.0       0.0       0.0       0.0      26.5       0.0
 0 C  dx2y2           0.0       0.0       0.0       0.0       0.0       0.5
 0 C  dxy             0.0       0.0       0.0       0.0       0.5       0.0
 1 H  s               0.0       0.0       8.0       8.0       0.0      14.8
 1 H  px              0.0       0.0       0.7       0.7       0.0       0.4
 1 H  py              0.0       0.0       0.0       0.0       0.3       0.0
 2 H  s               0.0       0.0       8.0       8.0      11.1       3.7
 2 H  px              0.0       0.0       0.2       0.2       0.2       0.1
 2 H  py              0.0       0.0       0.5       0.6       0.1       0.2
 3 H  s               0.0       0.0       8.0       8.0      11.1       3.7
 3 H  px              0.0       0.0       0.2       0.2       0.2       0.1
 3 H  py              0.0       0.0       0.5       0.6       0.1       0.2
 4 C  s              49.8      49.8      23.7      23.7       0.0       0.0
 4 C  px              0.0       0.0       0.0       0.0       0.0      26.5
 4 C  py              0.0       0.0       0.0       0.0      26.5       0.0
 4 C  dx2y2           0.0       0.0       0.0       0.0       0.0       0.5
 4 C  dxy             0.0       0.0       0.0       0.0       0.5       0.0
 5 H  s               0.0       0.0       8.0       8.0      11.1       3.7
 5 H  px              0.0       0.0       0.2       0.2       0.2       0.1
 5 H  py              0.0       0.0       0.5       0.6       0.1       0.2
 6 H  s               0.0       0.0       8.0       8.0       0.0      14.8
 6 H  px              0.0       0.0       0.7       0.7       0.0       0.4
 6 H  py              0.0       0.0       0.0       0.0       0.3       0.0
 7 H  s               0.0       0.0       8.0       8.0      11.1       3.7
 7 H  px              0.0       0.0       0.2       0.2       0.2       0.1
 7 H  py              0.0       0.0       0.5       0.6       0.1       0.2

                      6         7         8         9        10        11   
                  -0.56698  -0.56698  -0.13573  -0.06714   0.18826   0.22612
                   2.00000   2.00000   1.12404   0.87596   0.00000   0.00000
                  --------  --------  --------  --------  --------  --------
 0 C  s               0.0       0.0       0.0       0.0      10.9      11.1
 0 C  pz              0.0       0.0      47.2      46.7       0.0       0.1
 0 C  px              0.0      26.4       0.0       0.0       0.0       0.0
 0 C  py             26.4       0.0       0.0       0.0       0.0       0.0
 0 C  dz2             0.0       0.0       0.0       0.0       0.5       0.8
 0 C  dx2y2           0.0       0.5       0.0       0.0       0.0       0.0
 0 C  dxy             0.5       0.0       0.0       0.0       0.0       0.0
 1 H  s               0.0      14.8       0.0       0.0      10.7      10.2
 1 H  pz              0.0       0.0       0.9       1.1       0.0       0.0
 1 H  px              0.0       0.4       0.0       0.0       2.1       2.4
 1 H  py              0.3       0.0       0.0       0.0       0.0       0.0
 2 H  s              11.1       3.7       0.0       0.0      10.7      10.2
 2 H  pz              0.0       0.0       0.9       1.1       0.0       0.0
 2 H  px              0.2       0.1       0.0       0.0       0.5       0.6
 2 H  py              0.1       0.2       0.0       0.0       1.6       1.8
 3 H  s              11.1       3.7       0.0       0.0      10.7      10.2
 3 H  pz              0.0       0.0       0.9       1.1       0.0       0.0
 3 H  px              0.2       0.1       0.0       0.0       0.5       0.6
 3 H  py              0.1       0.2       0.0       0.0       1.6       1.8
 4 C  s               0.0       0.0       0.0       0.0      10.9      11.1
 4 C  pz              0.0       0.0      47.2      46.7       0.0       0.1
 4 C  px              0.0      26.4       0.0       0.0       0.0       0.0
 4 C  py             26.4       0.0       0.0       0.0       0.0       0.0
 4 C  dz2             0.0       0.0       0.0       0.0       0.5       0.8
 4 C  dx2y2           0.0       0.5       0.0       0.0       0.0       0.0
 4 C  dxy             0.5       0.0       0.0       0.0       0.0       0.0
 5 H  s              11.1       3.7       0.0       0.0      10.7      10.2
 5 H  pz              0.0       0.0       0.9       1.1       0.0       0.0
 5 H  px              0.2       0.1       0.0       0.0       0.5       0.6
 5 H  py              0.1       0.2       0.0       0.0       1.6       1.8
 6 H  s               0.0      14.8       0.0       0.0      10.7      10.2
 6 H  pz              0.0       0.0       0.9       1.1       0.0       0.0
 6 H  px              0.0       0.4       0.0       0.0       2.1       2.4
 6 H  py              0.3       0.0       0.0       0.0       0.0       0.0
 7 H  s              11.1       3.7       0.0       0.0      10.7      10.2
 7 H  pz              0.0       0.0       0.9       1.1       0.0       0.0
 7 H  px              0.2       0.1       0.0       0.0       0.5       0.6
 7 H  py              0.1       0.2       0.0       0.0       1.6       1.8

                     12        13        14        15        16        17   
                   0.26885   0.26885   0.27752   0.27753   0.58486   0.60359
                   0.00000   0.00000   0.00000   0.00000   0.00000   0.00000
                  --------  --------  --------  --------  --------  --------
 0 C  s               0.0       0.0       0.0       0.0      23.3       0.0
 0 C  pz              0.0       0.0       0.0       0.0       9.4       0.0
 0 C  px              6.8       0.0       7.0       0.0       0.0       0.0
 0 C  py              0.0       6.8       0.0       7.0       0.0      26.0
 0 C  dz2             0.0       0.0       0.0       0.0       3.7       0.0
 0 C  dx2y2           0.4       0.0       0.7       0.0       0.0       0.0
 0 C  dxy             0.0       0.4       0.0       0.7       0.0       5.2
 1 H  s              24.2       0.0      23.5       0.0       4.4       0.0
 1 H  px              3.1       0.0       3.2       0.0       0.1       0.0
 1 H  py              0.0       1.2       0.0       1.5       0.0       3.3
 2 H  s               6.1      18.2       5.9      17.6       4.4       6.9
 2 H  px              0.1       1.5       0.2       1.7       0.0       0.8
 2 H  py              1.5       1.1       1.7       1.1       0.1       0.1
 3 H  s               6.1      18.2       5.9      17.6       4.4       6.9
 3 H  px              0.1       1.5       0.2       1.7       0.0       0.8
 3 H  py              1.5       1.1       1.7       1.1       0.1       0.1
 4 C  s               0.0       0.0       0.0       0.0      23.3       0.0
 4 C  pz              0.0       0.0       0.0       0.0       9.4       0.0
 4 C  px              6.8       0.0       7.0       0.0       0.0       0.0
 4 C  py              0.0       6.8       0.0       7.0       0.0      26.0
 4 C  dz2             0.0       0.0       0.0       0.0       3.7       0.0
 4 C  dx2y2           0.4       0.0       0.7       0.0       0.0       0.0
 4 C  dxy             0.0       0.4       0.0       0.7       0.0       5.2
 5 H  s               6.1      18.2       5.9      17.6       4.4       6.9
 5 H  px              0.1       1.5       0.2       1.7       0.0       0.8
 5 H  py              1.5       1.1       1.7       1.1       0.1       0.1
 6 H  s              24.2       0.0      23.5       0.0       4.4       0.0
 6 H  px              3.1       0.0       3.2       0.0       0.1       0.0
 6 H  py              0.0       1.2       0.0       1.5       0.0       3.3
 7 H  s               6.1      18.2       5.9      17.6       4.4       6.9
 7 H  px              0.1       1.5       0.2       1.7       0.0       0.8
 7 H  py              1.5       1.1       1.7       1.1       0.1       0.1

                     18        19        20        21        22        23   
                   0.60362   0.65146   0.65149   0.69395   0.71728   0.85941
                   0.00000   0.00000   0.00000   0.00000   0.00000   0.00000
                  --------  --------  --------  --------  --------  --------
 0 C  s               0.0       0.0       0.0      13.8       6.0      20.6
 0 C  pz              0.0       0.0       0.0      20.3      40.5       0.0
 0 C  px             26.0       0.0      27.2       0.0       0.0       0.0
 0 C  py              0.0      27.2       0.0       0.0       0.0       0.0
 0 C  dz2             0.0       0.0       0.0       3.3       0.7       1.7
 0 C  dx2y2           5.2       0.0       4.9       0.0       0.0       0.0
 0 C  dxy             0.0       4.9       0.0       0.0       0.0       0.0
 1 H  s               9.2       0.0       8.6       4.1       0.9       6.5
 1 H  px              0.1       0.0       0.0       0.1       0.0       2.7
 1 H  py              0.0       3.3       0.0       0.0       0.0       0.0
 2 H  s               2.3       6.5       2.2       4.1       0.9       6.5
 2 H  px              1.7       0.5       2.0       0.0       0.0       0.7
 2 H  py              0.8       0.4       0.5       0.1       0.0       2.0
 3 H  s               2.3       6.5       2.2       4.1       0.9       6.5
 3 H  px              1.7       0.5       2.0       0.0       0.0       0.7
 3 H  py              0.8       0.4       0.5       0.1       0.0       2.0
 4 C  s               0.0       0.0       0.0      13.8       6.0      20.6
 4 C  pz              0.0       0.0       0.0      20.3      40.5       0.0
 4 C  px             26.0       0.0      27.2       0.0       0.0       0.0
 4 C  py              0.0      27.2       0.0       0.0       0.0       0.0
 4 C  dz2             0.0       0.0       0.0       3.3       0.7       1.7
 4 C  dx2y2           5.2       0.0       4.9       0.0       0.0       0.0
 4 C  dxy             0.0       4.9       0.0       0.0       0.0       0.0
 5 H  s               2.3       6.5       2.2       4.1       0.9       6.5
 5 H  px              1.7       0.5       2.0       0.0       0.0       0.7
 5 H  py              0.8       0.4       0.5       0.1       0.0       2.0
 6 H  s               9.2       0.0       8.6       4.1       0.9       6.5
 6 H  px              0.1       0.0       0.0       0.1       0.0       2.7
 6 H  py              0.0       3.3       0.0       0.0       0.0       0.0
 7 H  s               2.3       6.5       2.2       4.1       0.9       6.5
 7 H  px              1.7       0.5       2.0       0.0       0.0       0.7
 7 H  py              0.8       0.4       0.5       0.1       0.0       2.0

                     24        25        26        27        28        29   
                   0.88386   0.94164   0.94166   0.94716   0.94719   0.98506
                   0.00000   0.00000   0.00000   0.00000   0.00000   0.00000
                  --------  --------  --------  --------  --------  --------
 0 C  s              15.2       0.0       0.0       0.0       0.0      20.0
 0 C  pz              3.6       0.0       0.0       0.0       0.0      25.6
 0 C  px              0.0      22.7       0.0      24.7       0.0       0.0
 0 C  py              0.0       0.0      22.7       0.0      24.7       0.0
 0 C  dz2             2.2       0.0       0.0       0.0       0.0       1.4
 0 C  dx2y2           0.0       3.1       0.0       2.5       0.0       0.0
 0 C  dxy             0.0       0.0       3.1       0.0       2.5       0.0
 1 H  s               7.6      11.8       0.0      10.9       0.0       0.6
 1 H  pz              0.0       0.0       0.0       0.0       0.0       0.4
 1 H  px              2.1       4.1       0.0       4.2       0.0       0.1
 1 H  py              0.0       0.0       0.2       0.0       0.1       0.0
 2 H  s               7.6       3.0       8.9       2.7       8.2       0.6
 2 H  pz              0.0       0.0       0.0       0.0       0.0       0.4
 2 H  px              0.5       0.0       1.1       0.1       1.0       0.0
 2 H  py              1.6       1.1       2.0       1.0       2.2       0.1
 3 H  s               7.6       3.0       8.9       2.7       8.2       0.6
 3 H  pz              0.0       0.0       0.0       0.0       0.0       0.4
 3 H  px              0.5       0.0       1.1       0.1       1.0       0.0
 3 H  py              1.6       1.1       2.0       1.0       2.2       0.1
 4 C  s              15.2       0.0       0.0       0.0       0.0      20.0
 4 C  pz              3.6       0.0       0.0       0.0       0.0      25.6
 4 C  px              0.0      22.7       0.0      24.7       0.0       0.0
 4 C  py              0.0       0.0      22.7       0.0      24.7       0.0
 4 C  dz2             2.2       0.0       0.0       0.0       0.0       1.4
 4 C  dx2y2           0.0       3.1       0.0       2.5       0.0       0.0
 4 C  dxy             0.0       0.0       3.1       0.0       2.5       0.0
 5 H  s               7.6       3.0       8.9       2.7       8.2       0.6
 5 H  pz              0.0       0.0       0.0       0.0       0.0       0.4
 5 H  px              0.5       0.0       1.1       0.1       1.0       0.0
 5 H  py              1.6       1.1       2.0       1.0       2.2       0.1
 6 H  s               7.6      11.8       0.0      10.9       0.0       0.6
 6 H  pz              0.0       0.0       0.0       0.0       0.0       0.4
 6 H  px              2.1       4.1       0.0       4.2       0.0       0.1
 6 H  py              0.0       0.0       0.2       0.0       0.1       0.0
 7 H  s               7.6       3.0       8.9       2.7       8.2       0.6
 7 H  pz              0.0       0.0       0.0       0.0       0.0       0.4
 7 H  px              0.5       0.0       1.1       0.1       1.0       0.0
 7 H  py              1.6       1.1       2.0       1.0       2.2       0.1

                     30        31        32        33        34        35   
                   1.46416   1.46417   1.46449   1.46450   1.74740   1.74740
                   0.00000   0.00000   0.00000   0.00000   0.00000   0.00000
                  --------  --------  --------  --------  --------  --------
 0 C  dxz            16.0       0.0      16.0       0.0       0.0       0.0
 0 C  dyz             0.0      16.0       0.0      16.0       0.0       0.0
 1 H  pz             22.7       0.0      22.7       0.0       0.0       0.0
 1 H  py              0.0       0.0       0.0       0.0      16.7      16.7
 2 H  pz              5.7      17.0       5.7      17.0       0.0       0.0
 2 H  px              0.0       0.0       0.0       0.0      12.5      12.5
 2 H  py              0.0       0.0       0.0       0.0       4.2       4.2
 3 H  pz              5.7      17.0       5.7      17.0       0.0       0.0
 3 H  px              0.0       0.0       0.0       0.0      12.5      12.5
 3 H  py              0.0       0.0       0.0       0.0       4.2       4.2
 4 C  dxz            16.0       0.0      16.0       0.0       0.0       0.0
 4 C  dyz             0.0      16.0       0.0      16.0       0.0       0.0
 5 H  pz              5.7      17.0       5.7      17.0       0.0       0.0
 5 H  px              0.0       0.0       0.0       0.0      12.5      12.5
 5 H  py              0.0       0.0       0.0       0.0       4.2       4.2
 6 H  pz             22.7       0.0      22.7       0.0       0.0       0.0
 6 H  py              0.0       0.0       0.0       0.0      16.7      16.7
 7 H  pz              5.7      17.0       5.7      17.0       0.0       0.0
 7 H  px              0.0       0.0       0.0       0.0      12.5      12.5
 7 H  py              0.0       0.0       0.0       0.0       4.2       4.2

                     36        37        38        39        40        41   
                   1.86009   1.86015   1.90027   1.90033   1.99759   2.07800
                   0.00000   0.00000   0.00000   0.00000   0.00000   0.00000
                  --------  --------  --------  --------  --------  --------
 0 C  s               0.0       0.0       0.0       0.0       0.0       0.2
 0 C  pz              0.0       0.0       0.0       0.0       2.8       3.4
 0 C  px              4.4       0.0       5.0       0.0       0.0       0.0
 0 C  py              0.0       4.4       0.0       5.0       0.0       0.0
 0 C  dz2             0.0       0.0       0.0       0.0       0.0       3.1
 0 C  dx2y2           7.8       0.0       7.1       0.0       0.0       0.0
 0 C  dxy             0.0       7.8       0.0       7.1       0.0       0.0
 1 H  s               1.9       0.0       2.2       0.0       0.0       0.0
 1 H  pz              0.0       0.0       0.0       0.0      15.7      14.1
 1 H  px              7.0       0.0       6.8       0.0       0.0       0.3
 1 H  py              0.0      16.4       0.0      16.2       0.0       0.0
 2 H  s               0.5       1.4       0.6       1.7       0.0       0.0
 2 H  pz              0.0       0.0       0.0       0.0      15.7      14.1
 2 H  px             13.6       0.4      13.5       0.4       0.0       0.1
 2 H  py              0.4       8.9       0.4       8.8       0.0       0.2
 3 H  s               0.5       1.4       0.6       1.7       0.0       0.0
 3 H  pz              0.0       0.0       0.0       0.0      15.7      14.1
 3 H  px             13.6       0.4      13.5       0.4       0.0       0.1
 3 H  py              0.4       8.9       0.4       8.8       0.0       0.2
 4 C  s               0.0       0.0       0.0       0.0       0.0       0.2
 4 C  pz              0.0       0.0       0.0       0.0       2.8       3.4
 4 C  px              4.4       0.0       5.0       0.0       0.0       0.0
 4 C  py              0.0       4.4       0.0       5.0       0.0       0.0
 4 C  dz2             0.0       0.0       0.0       0.0       0.0       3.1
 4 C  dx2y2           7.8       0.0       7.1       0.0       0.0       0.0
 4 C  dxy             0.0       7.8       0.0       7.1       0.0       0.0
 5 H  s               0.5       1.4       0.6       1.7       0.0       0.0
 5 H  pz              0.0       0.0       0.0       0.0      15.7      14.1
 5 H  px             13.6       0.4      13.5       0.4       0.0       0.1
 5 H  py              0.4       8.9       0.4       8.8       0.0       0.2
 6 H  s               1.9       0.0       2.2       0.0       0.0       0.0
 6 H  pz              0.0       0.0       0.0       0.0      15.7      14.1
 6 H  px              7.0       0.0       6.8       0.0       0.0       0.3
 6 H  py              0.0      16.4       0.0      16.2       0.0       0.0
 7 H  s               0.5       1.4       0.6       1.7       0.0       0.0
 7 H  pz              0.0       0.0       0.0       0.0      15.7      14.1
 7 H  px             13.6       0.4      13.5       0.4       0.0       0.1
 7 H  py              0.4       8.9       0.4       8.8       0.0       0.2

                     42        43        44        45        46        47   
                   2.15635   2.16969   2.55185   2.55186   2.55189   2.55189
                   0.00000   0.00000   0.00000   0.00000   0.00000   0.00000
                  --------  --------  --------  --------  --------  --------
 0 C  s               3.4       4.0       0.0       0.0       0.0       0.0
 0 C  pz              0.0       0.4       0.0       0.0       0.0       0.0
 0 C  dz2            31.4      27.6       0.0       0.0       0.0       0.0
 0 C  dxz             0.0       0.0      33.5       0.0      33.6       0.0
 0 C  dyz             0.0       0.0       0.0      33.5       0.0      33.6
 0 C  dx2y2           0.0       0.0       0.2       0.0       0.1       0.0
 0 C  dxy             0.0       0.0       0.0       0.2       0.0       0.1
 1 H  s               0.3       0.4       0.0       0.0       0.0       0.0
 1 H  pz              0.0       1.1      10.5       0.0      10.5       0.0
 1 H  px              4.8       4.5       0.2       0.0       0.1       0.0
 1 H  py              0.0       0.0       0.0       0.2       0.0       0.1
 2 H  s               0.3       0.4       0.0       0.0       0.0       0.0
 2 H  pz              0.0       1.1       2.6       7.9       2.6       7.9
 2 H  px              1.2       1.1       0.0       0.1       0.0       0.1
 2 H  py              3.6       3.4       0.1       0.0       0.1       0.0
 3 H  s               0.3       0.4       0.0       0.0       0.0       0.0
 3 H  pz              0.0       1.1       2.6       7.9       2.6       7.9
 3 H  px              1.2       1.1       0.0       0.1       0.0       0.1
 3 H  py              3.6       3.4       0.1       0.0       0.1       0.0
 4 C  s               3.4       4.0       0.0       0.0       0.0       0.0
 4 C  pz              0.0       0.4       0.0       0.0       0.0       0.0
 4 C  dz2            31.4      27.6       0.0       0.0       0.0       0.0
 4 C  dxz             0.0       0.0      33.5       0.0      33.6       0.0
 4 C  dyz             0.0       0.0       0.0      33.5       0.0      33.6
 4 C  dx2y2           0.0       0.0       0.2       0.0       0.1       0.0
 4 C  dxy             0.0       0.0       0.0       0.2       0.0       0.1
 5 H  s               0.3       0.4       0.0       0.0       0.0       0.0
 5 H  pz              0.0       1.1       2.6       7.9       2.6       7.9
 5 H  px              1.2       1.1       0.0       0.1       0.0       0.1
 5 H  py              3.6       3.4       0.1       0.0       0.1       0.0
 6 H  s               0.3       0.4       0.0       0.0       0.0       0.0
 6 H  pz              0.0       1.1      10.5       0.0      10.5       0.0
 6 H  px              4.8       4.5       0.2       0.0       0.1       0.0
 6 H  py              0.0       0.0       0.0       0.2       0.0       0.1
 7 H  s               0.3       0.4       0.0       0.0       0.0       0.0
 7 H  pz              0.0       1.1       2.6       7.9       2.6       7.9
 7 H  px              1.2       1.1       0.0       0.1       0.0       0.1
 7 H  py              3.6       3.4       0.1       0.0       0.1       0.0

                     48        49        50        51        52        53   
                   2.55575   2.55578   2.55645   2.55648   3.19469   3.21379
                   0.00000   0.00000   0.00000   0.00000   0.00000   0.00000
                  --------  --------  --------  --------  --------  --------
 0 C  s               0.0       0.0       0.0       0.0      12.3      12.3
 0 C  px              0.0       6.0       0.0       5.9       0.0       0.0
 0 C  py              5.9       0.0       5.9       0.0       0.0       0.0
 0 C  dz2             0.0       0.0       0.0       0.0      11.8      11.6
 0 C  dxz             0.0       0.4       0.0       0.5       0.0       0.0
 0 C  dyz             0.4       0.0       0.6       0.0       0.0       0.0
 0 C  dx2y2           0.0      10.5       0.0      10.6       0.0       0.0
 0 C  dxy            10.5       0.0      10.6       0.0       0.0       0.0
 1 H  s               0.0       0.7       0.0       0.7       2.4       2.4
 1 H  pz              0.0       0.1       0.0       0.2       0.0       0.0
 1 H  px              0.0      10.7       0.0      10.4       6.3       6.3
 1 H  py             10.5       0.0      10.7       0.0       0.0       0.0
 2 H  s               0.5       0.2       0.5       0.2       2.4       2.4
 2 H  pz              0.1       0.0       0.1       0.0       0.0       0.0
 2 H  px              8.0       2.6       7.9       2.7       1.6       1.6
 2 H  py              2.7       8.0       2.6       7.9       4.7       4.7
 3 H  s               0.5       0.2       0.5       0.2       2.4       2.4
 3 H  pz              0.1       0.0       0.1       0.0       0.0       0.0
 3 H  px              8.0       2.6       7.9       2.7       1.6       1.6
 3 H  py              2.7       8.0       2.6       7.9       4.7       4.7
 4 C  s               0.0       0.0       0.0       0.0      12.3      12.3
 4 C  px              0.0       6.0       0.0       5.9       0.0       0.0
 4 C  py              5.9       0.0       5.9       0.0       0.0       0.0
 4 C  dz2             0.0       0.0       0.0       0.0      11.8      11.6
 4 C  dxz             0.0       0.4       0.0       0.5       0.0       0.0
 4 C  dyz             0.4       0.0       0.6       0.0       0.0       0.0
 4 C  dx2y2           0.0      10.5       0.0      10.6       0.0       0.0
 4 C  dxy            10.5       0.0      10.6       0.0       0.0       0.0
 5 H  s               0.5       0.2       0.5       0.2       2.4       2.4
 5 H  pz              0.1       0.0       0.1       0.0       0.0       0.0
 5 H  px              8.0       2.6       7.9       2.7       1.6       1.6
 5 H  py              2.7       8.0       2.6       7.9       4.7       4.7
 6 H  s               0.0       0.7       0.0       0.7       2.4       2.4
 6 H  pz              0.0       0.1       0.0       0.2       0.0       0.0
 6 H  px              0.0      10.7       0.0      10.4       6.3       6.3
 6 H  py             10.5       0.0      10.7       0.0       0.0       0.0
 7 H  s               0.5       0.2       0.5       0.2       2.4       2.4
 7 H  pz              0.1       0.0       0.1       0.0       0.0       0.0
 7 H  px              8.0       2.6       7.9       2.7       1.6       1.6
 7 H  py              2.7       8.0       2.6       7.9       4.7       4.7

                     54        55        56        57   
                   3.28053   3.28062   3.28366   3.28374
                   0.00000   0.00000   0.00000   0.00000
                  --------  --------  --------  --------
 0 C  px              5.6       0.0       5.7       0.0
 0 C  py              0.0       5.6       0.0       5.7
 0 C  dx2y2          23.1       0.0      22.8       0.0
 0 C  dxy             0.0      23.0       0.0      22.8
 1 H  s               5.0       0.0       5.0       0.0
 1 H  px              7.9       0.0       8.0       0.0
 1 H  py              0.0       1.3       0.0       1.3
 2 H  s               1.3       3.7       1.2       3.7
 2 H  px              2.4       0.5       2.4       0.5
 2 H  py              0.5       5.7       0.5       5.8
 3 H  s               1.3       3.7       1.2       3.7
 3 H  px              2.4       0.5       2.4       0.5
 3 H  py              0.5       5.7       0.5       5.8
 4 C  px              5.6       0.0       5.7       0.0
 4 C  py              0.0       5.6       0.0       5.7
 4 C  dx2y2          23.1       0.0      22.8       0.0
 4 C  dxy             0.0      23.0       0.0      22.8
 5 H  s               1.3       3.7       1.2       3.7
 5 H  px              2.4       0.5       2.4       0.5
 5 H  py              0.5       5.7       0.5       5.8
 6 H  s               5.0       0.0       5.0       0.0
 6 H  px              7.9       0.0       8.0       0.0
 6 H  py              0.0       1.3       0.0       1.3
 7 H  s               1.3       3.7       1.2       3.7
 7 H  px              2.4       0.5       2.4       0.5
 7 H  py              0.5       5.7       0.5       5.8

----------------------------
LOEWDIN REDUCED ACTIVE MOs  
----------------------------

                      6         7         8         9        10        11   
                  -0.56698  -0.56698  -0.13573  -0.06714   0.18826   0.22612
                   2.00000   2.00000   1.12404   0.87596   0.00000   0.00000
                  --------  --------  --------  --------  --------  --------
 0 C  s               0.0       0.0       0.0       0.0      10.9      11.1
 0 C  pz              0.0       0.0      47.2      46.7       0.0       0.1
 0 C  px              0.0      26.4       0.0       0.0       0.0       0.0
 0 C  py             26.4       0.0       0.0       0.0       0.0       0.0
 1 H  s               0.0      14.8       0.0       0.0      10.7      10.2
 2 H  s              11.1       3.7       0.0       0.0      10.7      10.2
 3 H  s              11.1       3.7       0.0       0.0      10.7      10.2
 4 C  s               0.0       0.0       0.0       0.0      10.9      11.1
 4 C  pz              0.0       0.0      47.2      46.7       0.0       0.1
 4 C  px              0.0      26.4       0.0       0.0       0.0       0.0
 4 C  py             26.4       0.0       0.0       0.0       0.0       0.0
 5 H  s              11.1       3.7       0.0       0.0      10.7      10.2
 6 H  s               0.0      14.8       0.0       0.0      10.7      10.2
 7 H  s              11.1       3.7       0.0       0.0      10.7      10.2

------------------------------------------------------------------------------
                           ORCA POPULATION ANALYSIS
------------------------------------------------------------------------------
Input electron density              ... caspt2.scfp
Input spin density                  ... caspt2.scfr
BaseName (.gbw .S,...)              ... caspt2

                    ********************************
                    * MULLIKEN POPULATION ANALYSIS *
                    ********************************

------------------------------------------
MULLIKEN ATOMIC CHARGES AND SPIN DENSITIES
------------------------------------------
   0 C :   -0.204478    0.491348
   1 H :    0.068171    0.002884
   2 H :    0.068153    0.002884
   3 H :    0.068153    0.002884
   4 C :   -0.204478    0.491348
   5 H :    0.068153    0.002884
   6 H :    0.068171    0.002884
   7 H :    0.068153    0.002884
Sum of atomic charges       :    0.0000000
Sum of atomic spin densities:    1.0000000

---------------------------------------------------
MULLIKEN REDUCED ORBITAL CHARGES AND SPIN DENSITIES
---------------------------------------------------
CHARGE
  0 C s       :     3.212838  s :     3.212838
      pz      :     0.983650  p :     2.973021
      px      :     0.994679
      py      :     0.994693
      dz2     :     0.002027  d :     0.018619
      dxz     :     0.000001
      dyz     :     0.000001
      dx2y2   :     0.008294
      dxy     :     0.008297
  1 H s       :     0.904254  s :     0.904254
      pz      :     0.005306  p :     0.027575
      px      :     0.018837
      py      :     0.003432
  2 H s       :     0.904270  s :     0.904270
      pz      :     0.005307  p :     0.027577
      px      :     0.007284
      py      :     0.014986
  3 H s       :     0.904270  s :     0.904270
      pz      :     0.005307  p :     0.027577
      px      :     0.007284
      py      :     0.014986
  4 C s       :     3.212838  s :     3.212838
      pz      :     0.983650  p :     2.973021
      px      :     0.994679
      py      :     0.994693
      dz2     :     0.002027  d :     0.018619
      dxz     :     0.000001
      dyz     :     0.000001
      dx2y2   :     0.008294
      dxy     :     0.008297
  5 H s       :     0.904270  s :     0.904270
      pz      :     0.005307  p :     0.027577
      px      :     0.007284
      py      :     0.014986
  6 H s       :     0.904254  s :     0.904254
      pz      :     0.005306  p :     0.027575
      px      :     0.018837
      py      :     0.003432
  7 H s       :     0.904270  s :     0.904270
      pz      :     0.005307  p :     0.027577
      px      :     0.007284
      py      :     0.014986

SPIN
  0 C s       :    -0.000387  s :    -0.000387
      pz      :     0.491714  p :     0.491714
      px      :     0.000000
      py      :     0.000000
      dz2     :     0.000021  d :     0.000021
      dxz     :     0.000000
      dyz     :     0.000000
      dx2y2   :     0.000000
      dxy     :     0.000000
  1 H s       :     0.000228  s :     0.000228
      pz      :     0.002655  p :     0.002655
      px      :     0.000000
      py      :     0.000000
  2 H s       :     0.000228  s :     0.000228
      pz      :     0.002656  p :     0.002656
      px      :     0.000000
      py      :     0.000000
  3 H s       :     0.000228  s :     0.000228
      pz      :     0.002656  p :     0.002656
      px      :     0.000000
      py      :     0.000000
  4 C s       :    -0.000387  s :    -0.000387
      pz      :     0.491714  p :     0.491714
      px      :     0.000000
      py      :     0.000000
      dz2     :     0.000021  d :     0.000021
      dxz     :     0.000000
      dyz     :     0.000000
      dx2y2   :     0.000000
      dxy     :     0.000000
  5 H s       :     0.000228  s :     0.000228
      pz      :     0.002656  p :     0.002656
      px      :     0.000000
      py      :     0.000000
  6 H s       :     0.000228  s :     0.000228
      pz      :     0.002655  p :     0.002655
      px      :     0.000000
      py      :     0.000000
  7 H s       :     0.000228  s :     0.000228
      pz      :     0.002656  p :     0.002656
      px      :     0.000000
      py      :     0.000000


                     *******************************
                     * LOEWDIN POPULATION ANALYSIS *
                     *******************************

-----------------------------------------
LOEWDIN ATOMIC CHARGES AND SPIN DENSITIES
-----------------------------------------
   0 C :   -0.036242    0.469610
   1 H :    0.012094    0.010128
   2 H :    0.012074    0.010131
   3 H :    0.012074    0.010131
   4 C :   -0.036242    0.469610
   5 H :    0.012074    0.010131
   6 H :    0.012094    0.010128
   7 H :    0.012074    0.010131

--------------------------------------------------
LOEWDIN REDUCED ORBITAL CHARGES AND SPIN DENSITIES
--------------------------------------------------
CHARGE
  0 C s       :     2.939534  s :     2.939534
      pz      :     0.939380  p :     3.055425
      px      :     1.058013
      py      :     1.058032
      dz2     :     0.003447  d :     0.041283
      dxz     :     0.000001
      dyz     :     0.000001
      dx2y2   :     0.018914
      dxy     :     0.018919
  1 H s       :     0.912127  s :     0.912127
      pz      :     0.019662  p :     0.075779
      px      :     0.045930
      py      :     0.010188
  2 H s       :     0.912136  s :     0.912136
      pz      :     0.019667  p :     0.075790
      px      :     0.019127
      py      :     0.036996
  3 H s       :     0.912136  s :     0.912136
      pz      :     0.019667  p :     0.075790
      px      :     0.019127
      py      :     0.036996
  4 C s       :     2.939534  s :     2.939534
      pz      :     0.939380  p :     3.055425
      px      :     1.058013
      py      :     1.058032
      dz2     :     0.003447  d :     0.041283
      dxz     :     0.000001
      dyz     :     0.000001
      dx2y2   :     0.018914
      dxy     :     0.018919
  5 H s       :     0.912136  s :     0.912136
      pz      :     0.019667  p :     0.075790
      px      :     0.019127
      py      :     0.036996
  6 H s       :     0.912127  s :     0.912127
      pz      :     0.019662  p :     0.075779
      px      :     0.045930
      py      :     0.010188
  7 H s       :     0.912136  s :     0.912136
      pz      :     0.019667  p :     0.075790
      px      :     0.019127
      py      :     0.036996

SPIN
  0 C s       :     0.000282  s :     0.000282
      pz      :     0.469304  p :     0.469304
      px      :     0.000000
      py      :     0.000000
      dz2     :     0.000024  d :     0.000024
      dxz     :     0.000000
      dyz     :     0.000000
      dx2y2   :     0.000000
      dxy     :     0.000000
  1 H s       :     0.000199  s :     0.000199
      pz      :     0.009919  p :     0.009929
      px      :     0.000010
      py      :     0.000000
  2 H s       :     0.000199  s :     0.000199
      pz      :     0.009921  p :     0.009932
      px      :     0.000003
      py      :     0.000008
  3 H s       :     0.000199  s :     0.000199
      pz      :     0.009921  p :     0.009932
      px      :     0.000003
      py      :     0.000008
  4 C s       :     0.000282  s :     0.000282
      pz      :     0.469304  p :     0.469304
      px      :     0.000000
      py      :     0.000000
      dz2     :     0.000024  d :     0.000024
      dxz     :     0.000000
      dyz     :     0.000000
      dx2y2   :     0.000000
      dxy     :     0.000000
  5 H s       :     0.000199  s :     0.000199
      pz      :     0.009921  p :     0.009932
      px      :     0.000003
      py      :     0.000008
  6 H s       :     0.000199  s :     0.000199
      pz      :     0.009919  p :     0.009929
      px      :     0.000010
      py      :     0.000000
  7 H s       :     0.000199  s :     0.000199
      pz      :     0.009921  p :     0.009932
      px      :     0.000003
      py      :     0.000008


                      *****************************
                      * MAYER POPULATION ANALYSIS *
                      *****************************

  NA   - Mulliken gross atomic population
  ZA   - Total nuclear charge
  QA   - Mulliken gross atomic charge
  VA   - Mayer's total valence
  BVA  - Mayer's bonded valence
  FA   - Mayer's free valence

  ATOM       NA         ZA         QA         VA         BVA        FA
  0 C      6.2045     6.0000    -0.2045     3.9524     2.9890     0.9635
  1 H      0.9318     1.0000     0.0682     0.9832     0.9790     0.0042
  2 H      0.9318     1.0000     0.0682     0.9832     0.9790     0.0042
  3 H      0.9318     1.0000     0.0682     0.9832     0.9790     0.0042
  4 C      6.2045     6.0000    -0.2045     3.9524     2.9890     0.9635
  5 H      0.9318     1.0000     0.0682     0.9832     0.9790     0.0042
  6 H      0.9318     1.0000     0.0682     0.9832     0.9790     0.0042
  7 H      0.9318     1.0000     0.0682     0.9832     0.9790     0.0042

  Mayer bond orders larger than 0.100000
B(  0-C ,  1-H ) :   0.9910 B(  0-C ,  2-H ) :   0.9910 B(  0-C ,  3-H ) :   0.9910 
B(  4-C ,  5-H ) :   0.9910 B(  4-C ,  6-H ) :   0.9910 B(  4-C ,  7-H ) :   0.9910 



----------------------------------------------------------------
                           < CASPT2  >                          
----------------------------------------------------------------

SYSTEM-SPECIFIC SETTINGS:
Number of active electrons          ...    2
Number of active orbitals           ...    2
Total number of electrons           ...   18
Total number of orbitals            ...   58

Determined orbital ranges:
   Internal       0 -    7 (   8 orbitals)
   Active         8 -    9 (   2 orbitals)
   External      10 -   57 (  48 orbitals)
  Last  frozen  orbital             ... 1
  First deleted orbital             ... 58
Number of multiplicity blocks       ...    2
BLOCK  0 WEIGHT=   0.5000
  Multiplicity                      ...    3
  #(Configurations)                 ...    1
  #(CSFs)                           ...    1
  #(Roots)                          ...    1
  PrintLevel                        ...    1

BLOCK  1 WEIGHT=   0.5000
  Multiplicity                      ...    1
  #(Configurations)                 ...    3
  #(CSFs)                           ...    3
  #(Roots)                          ...    1
  PrintLevel                        ...    1

INTEGRAL-TRANSFORMATION-STEP:
  Algorithm                         ... EXACT

PT2-SETTINGS:
  CASPT2 Real Levelshift            ...  0.00e+00
  CASPT2 Im.  Levelshift            ...  0.00e+00
  CASPT2 IPEA Levelshift            ...  0.00e+00
 CI step strategy                   ... General CI
  D4C handling                      ... PS approximation (factorized) 
  CI truncation for D4C at          ...  1.00e-12
  CI truncation for D3  at          ...  1.00e-14
  NThresh (linear dependencies)     ...  1.00e-06
  Orbitals                          ... canonical for each state 
  MaxDIIS                           ... 7
  MaxIter                           ... 50
  PrintLevel                        ... 1 

 --------------------
  MULT 3, ROOT 0 
 --------------------
   --- Canonicalize Internal Space
   --- Canonicalize External Space

[...]
   --- Canonicalize Internal Space
   --- Canonicalize External Space

     D1, D2 Build      ... done in        0.0 sec
     D3 Build          ... CI space truncated: 3 -> 2 CFGs 
                       ... RI space truncated: 3 -> 3 CFGs 
                       ... 
                       ... correcting norm (1.000000e+00) 
                       ... done in        0.0 sec
     Hole densities    ... done in        0.0 sec
     Calc Fock         ... done in        0.0 sec
 CASPT2 intermediates avoiding 4-th order density matrix   ...

     Class VIJAB       ... done in        0.0 sec
     Class ITAB        ... Skipped =         0 of        27648 LowestEV= 7.962761e-02 ... done in        0.0 sec 
     Class TUAB        ...  ERROR! All eigenvalues are <= 0 !!
Skipped =      6912 of         9216 LowestEV= 2.257785e-01 ... done in        0.0 sec 
     Class IJTA        ... Skipped =         0 of         3456 LowestEV=-1.242020e-01 ... done in        0.0 sec 
     Class IJTU        ...  ERROR! All eigenvalues are <= 0 !!
Skipped =        63 of           84 LowestEV= 0.000000e+00 ... done in        0.0 sec 
     Class ITUA/ITAU   ... Skipped =      1152 of         2304 LowestEV=-6.652332e-02 ... done in        0.0 sec 
     Class TUVA        ... CI space truncated: 3 -> 2 CFGs 
                       ... RI space truncated: 3 -> 3 CFGs 
                       ... 
                       ... correcting norm (1.000000e+00) 
                       ... Skipped =       288 of          384 LowestEV= 7.962761e-02 ... done in        0.0 sec 
     Class ITUV        ... CI space truncated: 3 -> 2 CFGs 
                       ... RI space truncated: 3 -> 3 CFGs 
                       ... 
                       ... correcting norm (1.000000e+00) 
                       ... Skipped =         6 of           48 LowestEV=-1.242020e-01 ... done in        0.0 sec 

-----------------------------------
 CASPT2-D Energy =     -0.269988713
-----------------------------------

Class V0_ijab: dE=     -0.185339059
Class Vm1_iab: dE=     -0.058400918
Class Vm2_ab : dE=     -0.000257173
Class V1_ija : dE=     -0.009922121
Class V2_ij  : dE=     -0.000129305
Class V0_ia  : dE=     -0.015873939
Class Vm1_a  : dE=     -0.000051448
Class V1_i   : dE=     -0.000014750


smallest energy denominator IJAB =      1.511922376
smallest energy denominator ITAB =      1.023851321
smallest energy denominator IJTA =      1.199457853
smallest energy denominator TUAB =      0.602303586
smallest energy denominator IJTU =      0.953516648
smallest energy denominator ITAU =      0.689437869
smallest energy denominator TUVA =      0.267890134
smallest energy denominator ITUV =      0.443496665

 Iter           EPT2     EHylleraas  residual norm    Time
    1    -0.26998871    -0.26973731     0.01319531     0.0
    2    -0.26973731    -0.26983655     0.00084396     0.0
    3    -0.26983599    -0.26983699     0.00005715     0.0
    4    -0.26983690    -0.26983699     0.00000300     0.0
    5    -0.26983699    -0.26983699     0.00000023     0.0

 CASPT2 calculation converged in 5 iterations 


 Reference Weight =      0.914128385

 ===============================================================
                       CASPT2 Results  
 ===============================================================
   *********************
    MULT 3, ROOT 0 
   *********************

  Class V0_ijab :	 dE = -0.185306491961 
  Class Vm1_iab :	 dE = -0.059693531943 
  Class Vm2_ab  :	 dE = -0.000110809268 
  Class V1_ija  :	 dE = -0.009843865210 
  Class V2_ij   :	 dE = -0.000012803617 
  Class V0_ia   :	 dE = -0.014187581428 
  Class Vm1_a   :	 dE = -0.000052543857 
  Class V1_i    :	 dE = -0.000016973714 

 --------------------------------------------------------------- 
 	 Total Energy Correction : dE = -0.26922460099735
 --------------------------------------------------------------- 
 	 Reference  Energy       : E0 = -79.05554214789601
 	 Reference Weight        : W0 = 0.91495777841700
 --------------------------------------------------------------- 
 	 Total Energy (E0+dE)    : E  = -79.32476674889335
 --------------------------------------------------------------- 

   *********************
    MULT 1, ROOT 0 
   *********************

  Class V0_ijab :	 dE = -0.185305915809 
  Class Vm1_iab :	 dE = -0.058361681494 
  Class Vm2_ab  :	 dE = -0.000255168983 
  Class V1_ija  :	 dE = -0.009893092562 
  Class V2_ij   :	 dE = -0.000131033771 
  Class V0_ia   :	 dE = -0.015822745225 
  Class Vm1_a   :	 dE = -0.000049469900 
  Class V1_i    :	 dE = -0.000017882101 

 --------------------------------------------------------------- 
 	 Total Energy Correction : dE = -0.26983698984577
 --------------------------------------------------------------- 
 	 Reference  Energy       : E0 = -79.06011134434321
 	 Reference Weight        : W0 = 0.91412838478135
 --------------------------------------------------------------- 
 	 Total Energy (E0+dE)    : E  = -79.32994833418898
 --------------------------------------------------------------- 

-----------------------
 CASPT2 TOTAL ENERGIES
-----------------------
# This can be used as input for the MRCI SOC block to replace
# the diagonal energies within the QDPT treatment. 
# Note that multiplicty blocks must be ordered in decending order e.g. mult 5,3,1! 

STATE   ROOT MULT  Energy/a.u.   MRCI SOC BLOCK INPUT (Eh)
   0:    0    3  -79.324767    EDIAG[0]    -79.324766749
   1:    0    1  -79.329948    EDIAG[1]    -79.329948334

-----------------------------
 CASPT2 TRANSITION ENERGIES
------------------------------

LOWEST ROOT (ROOT 0, MULT 1) =    -79.329948334 Eh -2158.678 eV

STATE ROOT MULT  DE/a.u.     DE/eV    DE/cm**-1
   1:   0    3   0.005182     0.141   1137.2

--------------------------------------------
 CASPT2 CORRECTION TO THE TRANSITION ENERGY
--------------------------------------------
STATE  ROOT MULT DE/a.u. DE/eV 	DE/cm**-1
   1:    0    3   0.000612      0.017    134.4


--------------
TIMINGS CASPT2
--------------

Sum of individual times        ...        1.0 sec (100.0%)

   Integraltransformation      ...        0.7 sec ( 67.5%)
   Building Fock and alike     ...        0.1 sec (  7.0%)
   Building D2,D1              ...        0.0 sec (  0.0%)
   Building D3                 ...        0.0 sec (  0.0%)
   Building D4                 ...        0.0 sec (  0.0%)
   All densities               ...        0.0 sec (  0.2%)
   Hole Densities              ...        0.0 sec (  0.0%)
   Re-Canonicalization         ...        0.1 sec (  8.7%)
   Iterations                  ...        0.2 sec ( 16.1%)
   Classes Vijab               ...        0.0 sec (  0.0%)
   Class Viab                  ...        0.0 sec (  0.1%)
   Class Vab                   ...        0.0 sec (  0.1%)
   Class Vija                  ...        0.0 sec (  0.1%)
   Class Vij                   ...        0.0 sec (  0.1%)
   Class Via                   ...        0.0 sec (  0.0%)
   Class Va                    ...        0.0 sec (  0.1%)
   Class Vi                    ...        0.0 sec (  0.0%)
   All Classes                 ...        0.2 sec ( 16.6%)

-------------------------------------------------------------
 Forming the transition densities       ... done in 0.0 sec
-------------------------------------------------------------

--------------
CASSCF TIMINGS
--------------

Total time                       ...        2.3 sec
Sum of individual times          ...        2.2 sec ( 97.3%)

Calculation of AO operators
   F(Core) operator              ...        0.3 sec ( 12.6%)
   G(Act) operator               ...        0.3 sec ( 11.1%)
Calculation of MO transformed quantities
   J(MO) operators               ...        0.6 sec ( 27.3%)
   AO->MO one electron integrals ...        0.0 sec (  0.1%)
Configuration interaction steps
   CI-setup phase                ...        0.0 sec (  0.3%)
   CI-solution phase             ...        0.0 sec (  0.5%)
   Generation of densities       ...        0.0 sec (  0.0%)
Orbital improvement steps
   Orbital gradient              ...        0.0 sec (  0.0%)
   O(1) converger                ...        0.0 sec (  0.2%)
CPCM steps
   Total CPCM time               ...        0.0 sec (  0.0%)
PT2 
   CASPT2 time                   ...        1.0 sec ( 45.2%)
Properties                       ...        0.0 sec (  0.0%)
   SOC integral calculation      ...        0.0 sec (  0.0%)
   SSC RMEs (incl. integrals)    ...        0.0 sec (  0.0%)
   SOC RMEs                      ...        0.0 sec (  0.0%)

Maximum memory used throughout the entire CASSCF-calculation: 39.5 MB

------------------------------------------------------------------------------
                         ORCA PROPERTY INTEGRAL CALCULATIONS
------------------------------------------------------------------------------

GBWName                                   ... caspt2.gbw
Number of atoms                           ...      8
Number of basis functions                 ...     58
Max core memory                           ...   4096 MB

Dipole integrals                          ... YES
Quadrupole integrals                      ...  NO
Linear momentum integrals                 ...  NO
Angular momentum integrals                ... YES
Higher moments length integrals           ...  NO
Higher moments velocity integrals         ...  NO
Kinetic energy integrals                  ...  NO
GIAO right hand sides                     ...  NO
GIAO dipole derivative integrals          ...  NO
SOC integrals                             ...  NO
EPR diamagnetic integrals (GIAO)          ...  NO
EPR gauge integrals                       ...  NO
Field gradient integrals                  ...  NO (   0 nuclei)
Spin-dipole/Fermi contact integrals       ...  NO (   0 nuclei)
Contact density integrals                 ...  NO (   0 nuclei)
Nucleus-orbit integrals                   ...  NO (   0 nuclei)
Geometric perturbations                   ...  NO (   8 nuclei)

Choice of electric origin   ... Center of mass
Position of electric origin ... ( -0.0000, -0.0000,  0.0000) 
Choice of magnetic origin   ... GIAO
Position of magnetic origin ... (  0.0000,  0.0000,  0.0000) 

Calculating integrals                     ... Electric Dipole (Length)     done (  0.0 sec)
Calculating integrals                     ... Angular Momentum  (ElOri)    done (  0.0 sec)

Property integrals calculated in   0.0 sec

Maximum memory used throughout the entire PROPINT-calculation: 4.3 MB
-------------------------------------------------------------------------------
                              ORCA-CASSCF
-------------------------------------------------------------------------------

Setting up the integral package     ... SharkInputFile = caspt2.SHARKINP.tmpdone

PROPERTIES-SETTINGS:
  QDPT diagonal energies            ... CASPT2 energies 


==========================================
CASSCF UV, CD spectra and dipole moments
==========================================


=====================================================================
CASSCF (CASPT2 diagonal energies) UV, CD spectra and dipole moments
=====================================================================

--------------
CASSCF TIMINGS
--------------

Total time                       ...        0.0 sec
Sum of individual times          ...        0.0 sec ( 92.8%)

Calculation of AO operators
Calculation of MO transformed quantities
Configuration interaction steps
   CI-setup phase                ...        0.0 sec ( 92.8%)
Orbital improvement steps

Maximum memory used throughout the entire CASSCF-calculation: 26.1 MB

-------------------------   --------------------
FINAL SINGLE POINT ENERGY       -79.327357541541
-------------------------   --------------------


------------------------------------------------------------------------------
                              ORCA PROPERTY CALCULATIONS
------------------------------------------------------------------------------

GBWName                                 ... caspt2.gbw
Number of atoms                         ...      8
Number of basis functions               ...     58
Max core memory                         ...   4096 MB

Electric properties:
Dipole moment                           ... YES
Quadrupole moment                       ...  NO
Static polarizability (Dipole/Dipole)   ...  NO
Static polarizability (Dipole/Quad.)    ...  NO
Static polarizability (Quad./Quad.)     ...  NO
Static polarizability (Velocity)        ...  NO
Static hyperpolarizability              ...  NO

Atomic electric properties:
Dipole moment                           ...  NO
Quadrupole moment                       ...  NO
Static polarizability                   ...  NO

Choice of electric origin               ... Center of mass
Position of electric origin             ...    -0.000000    -0.000000     0.000000

General magnetic properties:
Magnetizability                         ...  NO

EPR properties:
g-Tensor (aka g-matrix)                 ...  NO
Zero-Field splitting spin-orbit         ...  NO
Zero-field splitting spin-spin          ...  NO
Hyperfine couplings                     ...  NO (   0 nuclei)
Quadrupole couplings                    ...  NO (   0 nuclei)
Contact density                         ...  NO (   0 nuclei)

NMR properties:
Chemical shifts                         ...  NO (   0 nuclei)
Spin-rotation constants                 ...  NO (   0 nuclei)
Spin-spin couplings                     ...  NO (   0 nuclei,    0 pairs)

Choice of magnetic origin               ... GIAO
Position of magnetic origin             ...     0.000000     0.000000     0.000000

Properties with geometric perturbations:
SCF Hessian                             ...  NO
IR spectrum                             ...  NO
VCD spectrum                            ...  NO
X-ray spectroscopy properties:
SCF XES/XAS/RIXS spectra                ...  NO

SCF SOC stabilization energy            ...  NO
Diagonal Born-Oppenheimer correction    ...  NO

-------------
DIPOLE MOMENT
-------------

Method             : CASSCF/ALL STATES AVERAGE
Type of density    : Electron Density
Level              : Unrelaxed density
State              :  -1
Multiplicity       :  -1
Irrep              :   0
Energy             :   -79.0578267461196162 Eh
Basis              : AO
                                X                 Y                 Z
Electronic contribution:      0.000000000      -0.000000000      -0.000000000
Nuclear contribution   :      0.000000000       0.000000000       0.000000000
                        -----------------------------------------
Total Dipole Moment    :      0.000000000      -0.000000000      -0.000000000
                        -----------------------------------------
Magnitude (a.u.)       :      0.000000000
Magnitude (Debye)      :      0.000000000



--------------------
Rotational spectrum 
--------------------
 
Rotational constants in cm-1:             2.378825             0.176275             0.176274 
Rotational constants in MHz :         71315.383142          5284.602327          5284.572042 

Dipole components along the rotational axes: 
x,y,z [a.u.] :    -0.000000    -0.000000     0.000000 
x,y,z [Debye]:    -0.000000    -0.000000     0.000000 

 

Dipole moment calculation done in   0.0 sec 

Maximum memory used throughout the entire PROP-calculation: 2.1 MB

--------------------------------
SUGGESTED CITATIONS FOR THIS RUN
--------------------------------

Below you find a list of papers that are relevant to this ORCA run
We neither can nor want to force you to cite these papers, but we appreciate if you do
You receive ORCA, which is the product of decades of hard work by many enthusiastic individuals, for free
The only thing we kindly ask in return is that you cite our papers,
We deeply appreciate it, if you show your appreciation for ORCA by not just citing the generic ORCA reference.

Please note that relegating all ORCA citations to the supporting information does *not* help us.
SI sections are not indexed - citations you put there will not count into any citation statistics
But we need these citations in order to attract the funding resources that allow us to do what we are doing

Therefore, if you are a happy ORCA user, please consider citing a few of the papers listed below in the main body of your paper

In addition to the list printed below, the program has created the file caspt2.bibtex that contains the list in bibtex format
You can import this file easily into all common literature databanks and citation aid programs


List of essential papers. We consider these as the minimum necessary citations

  1. Neese, F.
     Software update: the ORCA program system, version 6.0
     WIRES Comput. Molec. Sci. 2025 15(1), e70019
     doi.org/10.1002/wcms.7019

List of papers to cite with high priority. The work reported in these papers was absolutely
necessary for this run to complete.
Our perspective: the developers of density functionals and basis sets usually get cited in chemistry papers
Good! But without the algorithms to do something with them, the functionals or basis sets would not do anything.
Hence, in our opinion, the algorithm design and method developments papers are equally worthy of getting cited

  1. Kollmar, C.; Sivalingam, K.; Helmich-Paris, B.; Angeli, C.; Neese, F.
     A perturbation-based super-CI approach for the orbital optimization of a CASSCF wave function
     J. Comput. Chem. 2019 40 , 1463-1470
     doi.org/10.1002/jcc.25801
  2. Kollmar, C.; Sivalingam, K.; Guo, Y.; Neese, F.
     An efficient implementation of the NEVPT2 and CASPT2 methods avoiding higher-order density matrices
     J. Chem. Phys. 2021 155(23), 234104
     doi.org/10.1063/5.0072129
  3. Neese, F.
     The SHARK Integral Generation and Digestion System
     J. Comp. Chem. 2022 44(3), 381
     doi.org/10.1002/jcc.26942
  4. Ugandi, M.; Roemelt, M.
     A recursive formulation of one-electron coupling coefficients for spin-adapted configuration interaction calculations featuring many unpaired electrons
     Int. J. Quantum Chem. 2023 123 , e27045
     doi.org/10.1002/qua.27045

List of suggested additional citations. These are papers that are important in the 'surrounding' of 
of this run, or papers that preceded the highly important papers. If you like your results we are grateful for a citation.

  1. Neese, F.
     The ORCA program system
     WIRES Comput. Molec. Sci. 2012 2(1), 73-78
     doi.org/10.1002/wcms.81
  2. Neese, F.
     Software update: the ORCA program system, version 4.0
     WIRES Comput. Molec. Sci. 2018 8(1), 1-6
     doi.org/10.1002/wcms.1327
  3. Kollmar, C.; Sivalingam, K.; Neese, F.
     An alternative choice of the zeroth-order Hamiltonian in CASPT2 theory
     J. Chem. Phys. 2020 152(21), 214110
     doi.org/10.1063/5.0010019
  4. Neese, F.; Wennmohs, F.; Becker, U.; Riplinger, C.
     The ORCA quantum chemistry program package
     J. Chem. Phys. 2020 152(22), 224108
     doi.org/10.1063/5.0004608
  5. Neese, F.
     Software update: The ORCA program system—Version 5.0
     WIRES Comput. Molec. Sci. 2022 12(1), e1606
     doi.org/10.1002/wcms.1606

List of optional additional citations

  1. Neese, F.
     Approximate second-order SCF convergence for spin unrestricted wavefunctions
     Chem. Phys. Lett. 2000 325(1-3), 93-98
     doi.org/10.1016/s0009-2614(00)00662-x

Timings for individual modules:

Sum of individual times          ...        2.661 sec (=   0.044 min)
Startup calculation              ...        0.185 sec (=   0.003 min)   7.0 %
SCF iterations                   ...        0.038 sec (=   0.001 min)   1.4 %
CASSCF iterations                ...        2.365 sec (=   0.039 min)  88.9 %
Property integrals               ...        0.034 sec (=   0.001 min)   1.3 %
Property calculations            ...        0.038 sec (=   0.001 min)   1.4 %
                             ****ORCA TERMINATED NORMALLY****
TOTAL RUN TIME: 0 days 0 hours 0 minutes 2 seconds 808 msec
