
                                 *****************
                                 * O   R   C   A *
                                 *****************

                                            #,                                       
                                            ###                                      
                                            ####                                     
                                            #####                                    
                                            ######                                   
                                           ########,                                 
                                     ,,################,,,,,                         
                               ,,#################################,,                 
                          ,,##########################################,,             
                       ,#########################################, ''#####,          
                    ,#############################################,,   '####,        
                  ,##################################################,,,,####,       
                ,###########''''           ''''###############################       
              ,#####''   ,,,,##########,,,,          '''####'''          '####       
            ,##' ,,,,###########################,,,                        '##       
           ' ,,###''''                  '''############,,,                           
         ,,##''                                '''############,,,,        ,,,,,,###''
      ,#''                                            '''#######################'''  
     '                                                          ''''####''''         
             ,#######,   #######,   ,#######,      ##                                
            ,#'     '#,  ##    ##  ,#'     '#,    #''#        ,####,    ,#,          
            ##       ##  ##   ,#'  ##            #'  '#       #'       ,# #          
            ##       ##  #######   ##           ,######,      #####,      #          
            '#,     ,#'  ##    ##  '#,     ,#' ,#      #,     #,   #      #          
             '#######'   ##     ##  '#######'  #'      '#     '####' #    #          



                #########################################################
                #                        -***-                          #
                #          Department of theory and spectroscopy        #
                #                                                       #
                #                      Frank Neese                      #
                #                                                       #
                #     Directorship, Architecture, Infrastructure        #
                #                    SHARK, DRIVERS                     #
                #        Core code/Algorithms in most modules           #
                #                                                       #
                #        Max Planck Institute fuer Kohlenforschung      #
                #                Kaiser Wilhelm Platz 1                 #
                #                 D-45470 Muelheim/Ruhr                 #
                #                      Germany                          #
                #                                                       #
                #                  All rights reserved                  #
                #                        -***-                          #
                #########################################################


                         Program Version 6.1.0  -  RELEASE   -
                                (GIT: $679e74b$)
                          ($2025-06-10 18:02:51 +0200$)


 With contributions from (in alphabetic order):
[Max-Planck-Institut fuer Kohlenforschung]                               
  Daniel Aravena         : Magnetic Suceptibility                        
  Michael Atanasov       : Ab Initio Ligand Field Theory (pilot matlab implementation)
  Alexander A. Auer      : GIAO ZORA, VPT2 properties, NMR spectrum      
  Ute Becker             : All parallelization in ORCA, NUMFREQ, NUMCALC 
  Giovanni Bistoni       : ED, misc. LED, open-shell LED, HFLD           
  Dmytro Bykov           : pre 5.0 version of the SCF Hessian            
  Marcos Casanova-Páez   : Triplet and SCS-CIS(D). UHF-(DLPNO)-IP/EA/STEOM-CCSD. UHF-CVS-IP/STEOM-CCSD   
  Vijay G. Chilkuri      : MRCI spin determinant printing, contributions to CSF-ICE 
  Pauline Colinet        : FMM embedding                                 
  Dipayan Datta          : RHF DLPNO-CCSD density                        
  Achintya Kumar Dutta   : EOM-CC, STEOM-CC                              
  Nicolas Foglia         : Exact transition moments, OPA infrastructure, MCD improvements    
  Dmitry Ganyushin       : Spin-Orbit,Spin-Spin,Magnetic field MRCI      
  Miquel Garcia-Rates    : C-PCM and meta-GGA Hessian, CCSD/C-PCM, Gaussian charge scheme 
  Tiago L. C. Gouveia    : GS-ROHF, GS-ROCIS                             
  Yang Guo               : DLPNO-NEVPT2, F12-NEVPT2, CIM, IAO-localization        
  Andreas Hansen         : Spin unrestricted coupled pair/coupled cluster methods 
  Ingolf Harden          : AUTO-CI MPn and infrastructure                
  Benjamin Helmich-Paris : MC-RPA, TRAH-(SCF,CASSCF), AVAS, COSX integrals, SCF dyn. polar., MC-PDFT, srDFT 
  Lee Huntington         : MR-EOM, pCC                                   
  Robert Izsak           : Overlap fitted RIJCOSX, COSX-SCS-MP3, EOM     
  Riya Kayal             : Wick's Theorem for AUTO-CI, AUTO-CI UHF-CCSDT 
  Emily Kempfer          : AUTO-CI RHF CISDT and CCSDT, approximate NEVPT4
  Christian Kollmar      : KDIIS, OOCD, Brueckner-CCSD(T), CCSD density, CASPT2, CASPT2-K, improved NEVPT2 
  Axel Koslowski         : Symmetry handling                             
  Simone Kossmann        : meta-GGA functionals, TD-DFT gradient, OOMP2, (MP2 Hessian; deprecated post 5.0) 
  Lucas Lang             : DCDCAS, Hyperfine gauge corrections, ICE-SOC+SSC
  Marvin Lechner         : AUTO-CI (C++ implementation), FIC-MRCC        
  Spencer Leger          : CASSCF response                               
  Dagmar Lenk            : GEPOL surface, SMD, ORCA-2-JSON               
  Dimitrios Liakos       : Extrapolation schemes; Compound Job, Property file
  Dimitrios Manganas     : Further ROCIS development; embedding schemes. LFT, Crystal Embedding 
  Dimitrios Pantazis     : SARC Basis sets                               
  Anastasios Papadopoulos: AUTO-CI, single reference methods and gradients 
  Taras Petrenko         : pre 6.0 DFT Hessian and TD-DFT gradient,  ECA, NRVS 
  Petra Pikulova         : Analytic Raman intensities                    
  Peter Pinski           : DLPNO-MP2, DLPNO-MP2 Gradient                 
  Shashank Vittal Rao    : ES-AILFT, MagRelax                            
  Christoph Reimann      : Effective Core Potentials                     
  Marius Retegan         : Local ZFS, SOC                                
  Christoph Riplinger    : Optimizer, TS searches, QM/MM, DLPNO-CCSD(T), (RO)-DLPNO pert. Triples 
  Michael Roemelt        : Original ROCIS implementation, recursive CI coupling coefficients
  Masaaki Saitow         : Open-shell DLPNO-CCSD energy and density      
  Barbara Sandhoefer     : DKH picture change effects                    
  Yorick L. A. Schmerwitz: GMF and freeze-and-release deltaSCF, NEB S-IDPP initial path                    
  Kantharuban Sivalingam : CASSCF convergence/infrastructure, NEVPT2, NEVPT3, NEVPT4(SD), FIC-MRCI and CEPA variants
  Bernardo de Souza      : ESD, SOC TD-DFT                               
  Georgi L. Stoychev     : AutoAux, RI-MP2 NMR, DLPNO-MP2 response, X2C  
  Van Anh Tran           : RI-MP2 g-tensors                              
  Willem Van den Heuvel  : Paramagnetic NMR                              
  Zikuan Wang            : NOTCH, Electric field optimization            
  Frank Wennmohs         : Technical directorship and infrastructure     
  Hang Xu                : AUTO-CI-Response properties                   
                                                                         
[FACCTs GmbH]                                                            
  Markus Bursch, Nicolas Foglia, Miquel Garcia-Rates, Ingolf Harden, Hagen Neugebauer, Anastasios Papadopoulos, 
  Christoph Riplinger, Bernardo de Souza, Georgi L. Stoychev                                                    
                                                                 
  APM, various basis sets, CI-OPT, improved COSX, DLPNO-Multilevel,           
  DOCKER, DRACO, updates on ESD, Fragmentator, GOAT, IRC, LR-CPCM, L-BFGS, MBIS, meta-GGA TD-DFT gradient, ML-optimized integration grids, 
  MM, NACMEs, nearIR, NEB, NEB-TS, NL-DFT gradient (VV10), 2- and 3-layer-ONIOM, interface openCOSMO-RS, QMMM,   
  Crystal-QMMM, RESP, rigid body optimization, SF, symmetry and pop. for TD-DFT, various functionals, SOLVATOR                                   
                                                                         
[Other institutions]                                                     
  V. Asgeirsson          : NEB                                           
  Christoph Bannwarth    : sTDA-DFT, sTD-DFT, PBEh-3c, B97-3c, D3        
  Giovanni Bistoni       : ETS/NOCV, ADLD/ADEX, COVALED                  
  Martin Brehm           : Molecular dynamics                            
  Ronald Cardenas        : ETS/NOCV                                      
  Martina Colucci        : COVALED                                       
  Sebastian Ehlert       : rSCAN, r2SCAN, r2SCAN-3c, D4, dhf basis sets  
  Marvin Friede          : D4 for Fr, Ra, Ac-Lr                          
  Lars Goerigk           : TD-DFT with DH, B97 family of functionals     
  Stefan Grimme          : VdW corrections, initial TS optimization, DFT functionals, gCP, sTDA/sTD-DF 
  Waldemar Hujo          : DFT-NL                                        
  H. Jonsson             : NEB                                           
  Holger Kruse           : gCP                                           
  Marcel Mueller         : wB97X-3c, vDZP basis set                      
  Hagen Neugebauer       : wr2SCAN, Native XTB                           
  Gianluca Regni         : ADLD/ADEX                                     
  Tobias Risthaus        : pre 6.0 range-separated hybrid DFT and stability analysis
  Lukas Wittmann         : regularized MP2, r2SCAN double-hybrids, wr2SCAN        
                                                                         
We gratefully acknowledge several colleagues who have allowed us to      
interface, adapt or use parts of their codes:                            
  Ed Valeev, F. Pavosevic, A. Kumar             : LibInt (2-el integral package), F12 methods 
  Garnet Chan, S. Sharma, J. Yang, R. Olivares  : DMRG                   
  Ulf Ekstrom                                   : XCFun DFT Library      
  Mihaly Kallay                                 : mrcc  (arbitrary order and MRCC methods)
  Frank Weinhold                                : gennbo (NPA and NBO analysis)           
  Simon Mueller                                 : openCOSMO-RS                            
  Christopher J. Cramer and Donald G. Truhlar   : smd solvation model                     
  S Lehtola, MJT Oliveira, MAL Marques          : LibXC Library                           
  Liviu Ungur et al                             : ANISO software                          


 Your calculation uses the libint2 library for the computation of 2-el integrals
 For citations please refer to: http://libint.valeyev.net

 Your ORCA version has been built with support for libXC version: 7.0.0
 For citations please refer to: https://libxc.gitlab.io

 This ORCA versions uses:
   CBLAS   interface :  Fast vector & matrix operations
   LAPACKE interface :  Fast linear algebra routines
   SCALAPACK package :  Parallel linear algebra routines
   Shared memory     :  Shared parallel matrices
   BLAS/LAPACK       :  OpenBLAS 0.3.29  USE64BITINT DYNAMIC_ARCH NO_AFFINITY SkylakeX SINGLE_THREADED
        Core in use  :  SkylakeX
   Copyright (c) 2011-2014, The OpenBLAS Project


  ***********************************
  * Starting time: Thu Dec 11 02:05:29 2025
  * Host name:     Jhonnytest
  * Process ID:    35964
  * Working dir.:  /home/jhonapontee/Group-theory/Proyecto/D3h/D3h-4.5/CASPT21
  ***********************************

================================================================================

----- Orbital basis set information -----
Your calculation utilizes the basis: def2-SVP
   F. Weigend and R. Ahlrichs, Phys. Chem. Chem. Phys. 7, 3297 (2005).

================================================================================
                                        WARNINGS
                       Please study these warnings very carefully!
================================================================================

WARNING: Old DensityContainer found on disk!
         Will remove this file - 
         If you want to keep old densities, please start your calculation with a different basename. 


WARNING: MOInp is set but Guess=PModel. MOInp will be ignored!
         To read the initial guess from a file you must also specify
         'MORead' in the simple input or 'Guess MORead' in the %scf block


WARNING: CASSCF multiplicity blocks not in descending order!
       : This is important for any CASSCF property run ...
 ===>  : Re-ordering the multiplicity blocks, nroots, irreps and alike!

IMPORTANT NOTE: CASSCF must signal convergence for a subsequent CASPT2/NEVPT2! 
                Set maxiter=1 to run CASPT2/NEVPT2 with arbitrary orbitals.


================================================================================
                                       INPUT FILE
================================================================================
NAME = d3h.inp
|  1> ! def2-SVP TightSCF
|  2> 
|  3> %output
|  4>   print[p_mos] true    # print MO coefficients
|  5>   print[p_basis] 5       # write <jobname>.molden.input
|  6> end
|  7> 
|  8> %moinp "d3h.gbw"
|  9> 
| 10> %casscf
| 11>   nel    2          # CAS(2,2): 2 active electrons
| 12>   norb   2          #          in 2 active orbitals
| 13> 
| 14>   mult   1,3        # first block: singlet (1), second block: triplet (3)
| 15>   nroots 1,1        # 1 singlet root + 1 triplet root
| 16> 
| 17>   PTMethod FIC_CASPT2
| 18> 
| 19>   PTSettings
| 20>     CASPT2_ishift    0.0
| 21>     CASPT2_rshift    0.0
| 22>     CASPT2_IPEAshift 0.0
| 23>   end
| 24> end
| 25> 
| 26> * xyz 0 3
| 27>   C    0.00000    0.00000   -2.25000
| 28>   H    1.08250    0.00000   -2.25000
| 29>   H   -0.54125    0.93740   -2.25000
| 30>   H   -0.54125   -0.93740   -2.25000
| 31>   C    0.00000    0.00000    2.25000
| 32>   H    1.08250    0.00000    2.25000
| 33>   H   -0.54125    0.93740    2.25000
| 34>   H   -0.54125   -0.93740    2.25000
| 35> *
| 36> 
| 37>                          ****END OF INPUT****
================================================================================

                       ****************************
                       * Single Point Calculation *
                       ****************************

---------------------------------
CARTESIAN COORDINATES (ANGSTROEM)
---------------------------------
  C      0.000000    0.000000   -2.250000
  H      1.082500    0.000000   -2.250000
  H     -0.541250    0.937400   -2.250000
  H     -0.541250   -0.937400   -2.250000
  C      0.000000    0.000000    2.250000
  H      1.082500    0.000000    2.250000
  H     -0.541250    0.937400    2.250000
  H     -0.541250   -0.937400    2.250000

----------------------------
CARTESIAN COORDINATES (A.U.)
----------------------------
  NO LB      ZA    FRAG     MASS         X           Y           Z
   0 C     6.0000    0    12.011    0.000000    0.000000   -4.251884
   1 H     1.0000    0     1.008    2.045629    0.000000   -4.251884
   2 H     1.0000    0     1.008   -1.022814    1.771429   -4.251884
   3 H     1.0000    0     1.008   -1.022814   -1.771429   -4.251884
   4 C     6.0000    0    12.011    0.000000    0.000000    4.251884
   5 H     1.0000    0     1.008    2.045629    0.000000    4.251884
   6 H     1.0000    0     1.008   -1.022814    1.771429    4.251884
   7 H     1.0000    0     1.008   -1.022814   -1.771429    4.251884

--------------------------------
INTERNAL COORDINATES (ANGSTROEM)
--------------------------------
 C      0   0   0     0.000000000000     0.00000000     0.00000000
 H      1   0   0     1.082500000000     0.00000000     0.00000000
 H      1   2   0     1.082437214115   120.00191878     0.00000000
 H      1   2   3     1.082437214115   120.00191878   180.00000000
 C      1   2   3     4.500000000000    90.00000000   270.00000000
 H      5   1   2     1.082500000000    90.00000000     0.00000000
 H      5   1   2     1.082437214115    90.00000000   120.00191878
 H      5   1   2     1.082437214115    90.00000000   239.99808122

---------------------------
INTERNAL COORDINATES (A.U.)
---------------------------
 C      0   0   0     0.000000000000     0.00000000     0.00000000
 H      1   0   0     2.045628539970     0.00000000     0.00000000
 H      1   2   0     2.045509891841   120.00191878     0.00000000
 H      1   2   3     2.045509891841   120.00191878   180.00000000
 C      1   2   3     8.503767602646    90.00000000   270.00000000
 H      5   1   2     2.045628539970    90.00000000     0.00000000
 H      5   1   2     2.045509891841    90.00000000   120.00191878
 H      5   1   2     2.045509891841    90.00000000   239.99808122

---------------------
BASIS SET INFORMATION
---------------------
There are 2 groups of distinct atoms

 Group   1 Type C   : 7s4p1d contracted to 3s2p1d pattern {511/31/1}
 Group   2 Type H   : 4s1p contracted to 2s1p pattern {31/1}

Atom   0C    basis set group =>   1
Atom   1H    basis set group =>   2
Atom   2H    basis set group =>   2
Atom   3H    basis set group =>   2
Atom   4C    basis set group =>   1
Atom   5H    basis set group =>   2
Atom   6H    basis set group =>   2
Atom   7H    basis set group =>   2

-------------------------
BASIS SET IN INPUT FORMAT
-------------------------

 # Basis set for element : H 
 NewGTO H 
 S 3 
   1      13.0107010000      0.0334854848
   2       1.9622572000      0.2347218709
   3       0.4445379600      0.8137702853
 S 1 
   1       0.1219496200      1.0000000000
 P 1 
   1       0.8000000000      1.0000000000
  end;

 # Basis set for element : C 
 NewGTO C 
 S 5 
   1    1238.4016938000      0.0055173650
   2     186.2900499200      0.0410888285
   3      42.2511763460      0.1822538213
   4      11.6765579320      0.4682845944
   5       3.5930506482      0.4457581734
 S 1 
   1       0.4024514736      1.0000000000
 S 1 
   1       0.1309018267      1.0000000000
 P 3 
   1       9.4680970621      0.0568883320
   2       2.0103545142      0.3129405934
   3       0.5477100471      0.7606501651
 P 1 
   1       0.1526861379      1.0000000000
 D 1 
   1       0.8000000000      1.0000000000
  end;


Checking for AutoStart:
The File: d3h.gbw exists
Trying to determine its content:
     ... Fine, the file contains calculation information
     ... Fine, the calculation information was read
     ... Fine, the file contains a basis set
     ... Fine, the basis set was read
     ... Fine, the file contains a geometry
     ... Fine, the geometry was read
     ... Fine, the file contains a set of orbitals
     ... Fine, the orbitals can be read
     => possible old guess file was deleted
     => GBW file was renamed to GES file
     => GES file is set as startup file
     => Guess is set to MORead
     ... now leaving AutoStart

------------------------------------------------------------------------------
                             ORCA STARTUP CALCULATIONS
------------------------------------------------------------------------------
------------------------------------------------------------------------------
                   ___                                                        
                  /   \      - P O W E R E D   B Y -                         
                 /     \                                                     
                 |  |  |   _    _      __       _____    __    __             
                 |  |  |  | |  | |    /  \     |  _  \  |  |  /  |          
                  \  \/   | |  | |   /    \    | | | |  |  | /  /          
                 / \  \   | |__| |  /  /\  \   | |_| |  |  |/  /          
                |  |  |   |  __  | /  /__\  \  |    /   |      \           
                |  |  |   | |  | | |   __   |  |    \   |  |\   \          
                \     /   | |  | | |  |  |  |  | |\  \  |  | \   \       
                 \___/    |_|  |_| |__|  |__|  |_| \__\ |__|  \__/        
                                                                              
                      - O R C A' S   B I G   F R I E N D -                    
                                      &                                       
                       - I N T E G R A L  F E E D E R -                       
                                                                              
 v1 FN, 2020, v2 2021, v3 2022-2024                                           
------------------------------------------------------------------------------


----------------------
SHARK INTEGRAL PACKAGE
----------------------

Number of atoms                             ...      8
Number of basis functions                   ...     58
Number of shells                            ...     30
Maximum angular momentum                    ...      2
Integral batch strategy                     ... SHARK/LIBINT Hybrid
RI-J (if used) integral strategy            ... SPLIT-RIJ (Revised 2003 algorithm where possible)
Printlevel                                  ...      1
Contraction scheme used                     ... SEGMENTED contraction
Prescreening option                         ... SCHWARTZ
   Thresh                                   ... 2.500e-11
   Tcut                                     ... 2.500e-12
   Tpresel                                  ... 2.500e-12 
Coulomb Range Separation                    ... NOT USED
Exchange Range Separation                   ... NOT USED
Multipole approximations                    ... NOT USED
Finite Nucleus Model                        ... NOT USED
CABS basis                                  ... NOT available
Auxiliary Coulomb fitting basis             ... NOT available
Auxiliary J/K fitting basis                 ... NOT available
Auxiliary Correlation fitting basis         ... NOT available
Auxiliary 'external' fitting basis          ... NOT available

Checking pre-screening integrals            ... done (  0.0 sec) Dimension = 30
   => SHARK Basis and OBASIS are compatible. Storing Pre-screening
Shell pair information
Shell pair cut-off parameter TPreSel        ...   2.5e-12
Total number of shell pairs                 ...       465
Shell pairs after pre-screening             ...       440
Total number of primitive shell pairs       ...      1529
Primitive shell pairs kept                  ...      1112
          la=0 lb=0:    162 shell pairs
          la=1 lb=0:    172 shell pairs
          la=1 lb=1:     49 shell pairs
          la=2 lb=0:     34 shell pairs
          la=2 lb=1:     20 shell pairs
          la=2 lb=2:      3 shell pairs

Checking whether 4 symmetric matrices of dimension 58 fit in memory
:Max Core in MB      =   4096.00
 MB in use           =      1.72
 MB left             =   4094.28
 MB needed           =      0.05
 Data fit in memory  = YES
Calculating Nuclear repulsion               ... done (  0.0 sec) ENN=     28.646180608680 Eh

Diagonalization of the overlap matrix:
Smallest eigenvalue                        ... 2.175e-02
Time for diagonalization                   ...    0.004 sec
Threshold for overlap eigenvalues          ... 1.000e-07
Number of eigenvalues below threshold      ... 0
Time for construction of square roots      ...    0.001 sec
Total time needed                          ...    0.004 sec

-------------------
DFT GRID GENERATION
-------------------

General Integration Accuracy     IntAcc      ... 4.388
Radial Grid Type                 RadialGrid  ... OptM3 with GC (2021)
Angular Grid (max. ang.)         AngularGrid ... 4 (Lebedev-302)
Angular grid pruning method      GridPruning ... 4 (adaptive)
Weight generation scheme         WeightScheme... mBecke (2022)
Basis function cutoff            BFCut       ... 1.0000e-11
Integration weight cutoff        WCut        ... 1.0000e-14
Partially contracted basis set               ... off
Rotationally invariant grid construction     ... off
Angular grids for H and He will be reduced by one unit

Total number of grid points                  ...    32020
Total number of batches                      ...      505
Average number of points per batch           ...       63
Average number of grid points per atom       ...     4002
Grids setup in   0.1 sec
Initializing property integral containers    ... done (  0.0 sec)

SHARK setup successfully completed in   0.2 seconds

Maximum memory used throughout the entire STARTUP-calculation: 11.4 MB
-------------------------------------------------------------------------------
                                 ORCA GUESS
                   Start orbitals & Density for SCF / CASSCF
-------------------------------------------------------------------------------

------------
SCF SETTINGS
------------
Hamiltonian:
 Ab initio Hamiltonian  Method          .... Hartree-Fock(GTOs)


General Settings:
 Integral files         IntName         .... d3h
 Hartree-Fock type      HFTyp           .... CASSCF
 Total Charge           Charge          ....    0
 Multiplicity           Mult            ....    3
 Number of Electrons    NEL             ....   18
 Basis Dimension        Dim             ....   58
 Nuclear Repulsion      ENuc            ....     28.6461806087 Eh

---------------------
INITIAL GUESS: MOREAD
---------------------
Guess MOs are being read from file: d3h.ges
Input Geometry matches current geometry (good)
Input basis set matches current basis set (good)
Occupation numbers will be reassigned to an Aufbau configuration
MOs were renormalized
Gram-Schmidt orthogonalization of all MOs with pivot on actives
                      ------------------
                      INITIAL GUESS DONE (   0.0 sec)
                      ------------------
             **** ENERGY FILE WAS UPDATED (d3h.en.tmp) ****
Finished Guess after   0.0 sec
Maximum memory used throughout the entire GUESS-calculation: 4.1 MB
-------------------------------------------------------------------------------
                              ORCA-CASSCF
-------------------------------------------------------------------------------

Building the CAS space              ... done (1 configurations for Mult=3)
Building the CAS space              ... done (3 configurations for Mult=1)
Memory for address arrays  		      ... done
Make address arrays			      ... done
Memory for buffers 			      ... done
Setting up spin-function prototypes	      ... (MAXOPEN=2) 2 4 done
Trivial cases - DOMO's			      ... done (  0.0 MB)
Number of open shells			    ...  2
domo->virtual excitations			... done (  0.0 MB)
domo->somo excitations				... done (  0.0 MB)
somo->virtual excitations			... done (  0.0 MB)
somo->somo excitations				... done (  0.0 MB)
Coupling container construction done
Memory for address arrays  		      ... done
Make address arrays			      ... done
Memory for buffers 			      ... done
Setting up spin-function prototypes	      ... (MAXOPEN=2) 0 2 4 done
Trivial cases - DOMO's			      ... done (  0.0 MB)
Number of open shells			    ...  0
domo->virtual excitations			... done (  0.0 MB)
domo->somo excitations				... done (  0.0 MB)
somo->virtual excitations			... done (  0.0 MB)
somo->somo excitations				... done (  0.0 MB)
Number of open shells			    ...  2
domo->virtual excitations			... done (  0.0 MB)
domo->somo excitations				... done (  0.0 MB)
somo->virtual excitations			... done (  0.0 MB)
somo->somo excitations				... done (  0.0 MB)
Coupling container construction done

 CASSCF (estimated) memory needed     ... 0.3 MB
 CASPT2 (estimated) memory needed     ... 0.9 MB 


SYSTEM-SPECIFIC SETTINGS:
Number of active electrons          ...    2
Number of active orbitals           ...    2
Total number of electrons           ...   18
Total number of orbitals            ...   58

Determined orbital ranges:
   Internal       0 -    7 (   8 orbitals)
   Active         8 -    9 (   2 orbitals)
   External      10 -   57 (  48 orbitals)
Number of rotation parameters      ...    496

CI-STEP:
CI strategy                         ... General CI
Number of multiplicity blocks       ...    2
BLOCK  0 WEIGHT=   0.5000
  Multiplicity                      ...    3
  #(Configurations)                 ...    1
  #(CSFs)                           ...    1
  #(Roots)                          ...    1
    ROOT=0 WEIGHT=    0.500000

BLOCK  1 WEIGHT=   0.5000
  Multiplicity                      ...    1
  #(Configurations)                 ...    3
  #(CSFs)                           ...    3
  #(Roots)                          ...    1
    ROOT=0 WEIGHT=    0.500000

  PrintLevel                        ...    1
  N(GuessMat)                       ...      2048
  MaxDim(CI)                        ...        10
  MaxIter(CI)                       ...        64
  Energy Tolerance CI               ...  2.50e-09
  Residual Tolerance CI             ...  2.50e-09
  Shift(CI)                         ...  1.00e-04

INTEGRAL-TRANSFORMATION-STEP:
  Algorithm                         ... EXACT

ORBITAL-IMPROVEMENT-STEP:
  Algorithm                         ... SuperCI(PT)
  Default Parametrization           ... CAYLEY
  Act-Act rotations                 ... depends on algorithm used

  Note: SuperCI(PT) will ignore FreezeIE, FreezeAct and FreezeGrad. In general Default settings are encouraged.
        In conjunction with ShiftUp, ShiftDn or GradScaling the performance of SuperCI(PT) is less optimal.  

  MaxRot                            ... 2.00e-01 
  Max. no of vectors (DIIS)         ... 15
  DThresh (cut-off) metric          ... 1.00e-06
  Switch step at gradient           ...  3.00e-02 
  Switch step at iteration          ...        50   
  Switch step to                    ... SuperCI(PT)    

SCF-SETTINGS:
  Incremental                       ... on
  RIJCOSX approximation             ... off
  RI-JK approximation               ... off
  AO integral handling              ... DIRECT
  Integral Neglect Thresh           ...  2.50e-11
  Primitive cutoff TCut             ...  2.50e-12
  Energy convergence tolerance      ...  2.50e-08
  Orbital gradient convergence      ...  2.50e-04
  Max. number of iterations         ...        75  

PT2-SETTINGS:
  A PT2 calculation will be performed on top of the CASSCF wave function (PT2 = CASPT2)   
  CASPT2 Real Levelshift            ...  0.00e+00
  CASPT2 Im.  Levelshift            ...  0.00e+00
  CASPT2 IPEA Levelshift            ...  0.00e+00
 CI step strategy                   ... General CI
  D4C handling                      ... PS approximation (factorized) 
  CI truncation for D4C at          ...  1.00e-12
  CI truncation for D3  at          ...  1.00e-14
  Orbitals                          ... canonical for each state 
  Last  frozen  orbital             ... 1
  First deleted orbital             ... 58

FINAL ORBITALS:
  Active   Orbitals                 ... natural 
  Internal Orbitals                 ... canonical 
  External Orbitals                 ... canonical 

------------------
CAS-SCF ITERATIONS
------------------


MACRO-ITERATION   1: 
   --- Inactive Energy E0 = -78.18436960 Eh
CI-ITERATION   0: 
   -79.057603021   0.000000000000 (    0.00)
   CI-PROBLEM SOLVED
   DENSITIES MADE
CI-ITERATION   0: 
   -79.057877225   0.000000000000 (    0.00)
   CI-PROBLEM SOLVED
   DENSITIES MADE

                 <<<<<<<<<<<<<<<<<<INITIAL CI STATE CHECK>>>>>>>>>>>>>>>>>>

BLOCK  0 MULT= 3 NROOTS= 1 
ROOT   0:  E=     -79.0576030208 Eh
      1.00000 [     0]: 11

BLOCK  1 MULT= 1 NROOTS= 1 
ROOT   0:  E=     -79.0578772254 Eh
      0.53159 [     0]: 20
      0.46841 [     2]: 02

                 <<<<<<<<<<<<<<<<<<INITIAL CI STATE CHECK>>>>>>>>>>>>>>>>>>

   E(CAS)=   -79.057740123 Eh DE=    0.000000e+00
   --- Energy gap subspaces: Ext-Act = 0.294   Act-Int = 0.457
   N(occ)=  1.03159 0.96841
   ||g|| =     1.561091e-04 Max(G)=    5.173443e-05 Rot=22,8
                     ---- THE CAS-SCF GRADIENT HAS CONVERGED ----
                            --- FINALIZING ORBITALS ---
                    ---- DOING ONE FINAL ITERATION FOR PRINTING ----
   --- Canonicalize Internal Space
   --- Canonicalize External Space

MACRO-ITERATION   2: 
   --- Inactive Energy E0 = -78.18436960 Eh
   --- All densities will be recomputed
CI-ITERATION   0: 
   -79.057603021   0.000000000000 (    0.00)
   CI-PROBLEM SOLVED
   DENSITIES MADE
CI-ITERATION   0: 
   -79.057877225   0.000000000000 (    0.00)
   CI-PROBLEM SOLVED
   DENSITIES MADE
   E(CAS)=   -79.057740123 Eh DE=    2.842171e-14
   --- Energy gap subspaces: Ext-Act = 0.294   Act-Int = 0.457
   N(occ)=  1.03159 0.96841
   ||g|| =     1.561091e-04 Max(G)=   -5.173443e-05 Rot=22,8
--------------
CASSCF RESULTS
--------------

Final CASSCF energy       : -79.057740123 Eh   -2151.2705 eV

----------------
ORBITAL ENERGIES
----------------

  NO   OCC          E(Eh)            E(eV) 
   0   2.0000     -11.229468      -305.5694 
   1   2.0000     -11.229456      -305.5690 
   2   2.0000      -0.886276       -24.1168 
   3   2.0000      -0.885631       -24.0992 
   4   2.0000      -0.570226       -15.5166 
   5   2.0000      -0.570224       -15.5166 
   6   2.0000      -0.569740       -15.5034 
   7   2.0000      -0.569738       -15.5034 
   8   1.0316      -0.113016        -3.0753 
   9   0.9684      -0.095896        -2.6095 
  10   0.0000       0.198208         5.3935 
  11   0.0000       0.212035         5.7698 
  12   0.0000       0.265448         7.2232 
  13   0.0000       0.265455         7.2234 
  14   0.0000       0.280264         7.6264 
  15   0.0000       0.280271         7.6266 
  16   0.0000       0.618565        16.8320 
  17   0.0000       0.618596        16.8329 
  18   0.0000       0.629359        17.1257 
  19   0.0000       0.629390        17.1266 
  20   0.0000       0.631479        17.1834 
  21   0.0000       0.682033        18.5591 
  22   0.0000       0.709696        19.3118 
  23   0.0000       0.786552        21.4032 
  24   0.0000       0.864316        23.5192 
  25   0.0000       0.878931        23.9169 
  26   0.0000       0.937934        25.5225 
  27   0.0000       0.937956        25.5231 
  28   0.0000       0.948314        25.8049 
  29   0.0000       0.948336        25.8055 
  30   0.0000       1.462797        39.8047 
  31   0.0000       1.462813        39.8052 
  32   0.0000       1.462818        39.8053 
  33   0.0000       1.462834        39.8057 
  34   0.0000       1.746308        47.5195 
  35   0.0000       1.746308        47.5195 
  36   0.0000       1.873551        50.9819 
  37   0.0000       1.873612        50.9836 
  38   0.0000       1.879927        51.1554 
  39   0.0000       1.879987        51.1571 
  40   0.0000       2.003227        54.5106 
  41   0.0000       2.027085        55.1598 
  42   0.0000       2.150501        58.5181 
  43   0.0000       2.158683        58.7408 
  44   0.0000       2.550572        69.4046 
  45   0.0000       2.550579        69.4048 
  46   0.0000       2.550581        69.4048 
  47   0.0000       2.550589        69.4051 
  48   0.0000       2.552954        69.4694 
  49   0.0000       2.552991        69.4704 
  50   0.0000       2.556902        69.5768 
  51   0.0000       2.556940        69.5779 
  52   0.0000       3.197523        87.0090 
  53   0.0000       3.203078        87.1602 
  54   0.0000       3.280313        89.2619 
  55   0.0000       3.280399        89.2642 
  56   0.0000       3.281431        89.2923 
  57   0.0000       3.281517        89.2946 


---------------------------------------------
CAS-SCF STATES FOR BLOCK  0 MULT= 3 NROOTS= 1
---------------------------------------------

ROOT   0:  E=     -79.0576030208 Eh
      1.00000 [     0]: 11


---------------------------------------------
CAS-SCF STATES FOR BLOCK  1 MULT= 1 NROOTS= 1
---------------------------------------------

ROOT   0:  E=     -79.0578772254 Eh
      0.53159 [     0]: 20
      0.46841 [     2]: 02


-----------------------------
SA-CASSCF TRANSITION ENERGIES
------------------------------

LOWEST ROOT (ROOT 0 ,MULT 1) =    -79.057877225 Eh -2151.274 eV

STATE   ROOT MULT  DE/a.u.    DE/eV    DE/cm**-1
   1:    0    3   0.000274     0.007     60.2


--------------
DENSITY MATRIX
--------------

                  0          1    
      0       1.031593   0.000000
      1       0.000000   0.968407
Trace of the electron density:  2.000000
Extracting Spin-Density from 2-RDM (MULT=3) ... done
Extracting Spin-Density from 2-RDM (MULT=1) ... done

-------------------
SPIN-DENSITY MATRIX
-------------------

                  0          1    
      0       0.500000   0.000000
      1       0.000000   0.500000
Trace of the spin density:  1.000000

-----------------
ENERGY COMPONENTS
-----------------

One electron energy          :   -161.636215741 Eh       -4398.3450 eV
Two electron energy          :     53.932295009 Eh        1467.5724 eV
Nuclear repulsion energy     :     28.646180609 Eh         779.5022 eV
                               ----------------
                                  -79.057740123

Kinetic energy               :     78.530625746 Eh        2136.9270 eV
Potential energy             :   -157.588365869 Eh       -4288.1974 eV
Virial ratio                 :     -2.006712214 
                               ----------------
                                  -79.057740123

Core energy                  :    -78.184369599 Eh    -2127.5049 eV


----------------------------
LOEWDIN ORBITAL-COMPOSITIONS
----------------------------

                      0         1         2         3         4         5   
                 -11.22947 -11.22946  -0.88628  -0.88563  -0.57023  -0.57022
                   2.00000   2.00000   2.00000   2.00000   2.00000   2.00000
                  --------  --------  --------  --------  --------  --------
 0 C  s              49.8      49.8      23.7      23.7       0.0       0.0
 0 C  px              0.0       0.0       0.0       0.0       0.0      26.4
 0 C  py              0.0       0.0       0.0       0.0      26.4       0.0
 0 C  dx2y2           0.0       0.0       0.0       0.0       0.0       0.5
 0 C  dxy             0.0       0.0       0.0       0.0       0.5       0.0
 1 H  s               0.0       0.0       8.0       8.0       0.0      14.8
 1 H  px              0.0       0.0       0.7       0.7       0.0       0.4
 1 H  py              0.0       0.0       0.0       0.0       0.3       0.0
 2 H  s               0.0       0.0       8.0       8.0      11.1       3.7
 2 H  px              0.0       0.0       0.2       0.2       0.2       0.1
 2 H  py              0.0       0.0       0.5       0.6       0.1       0.2
 3 H  s               0.0       0.0       8.0       8.0      11.1       3.7
 3 H  px              0.0       0.0       0.2       0.2       0.2       0.1
 3 H  py              0.0       0.0       0.5       0.6       0.1       0.2
 4 C  s              49.8      49.8      23.7      23.7       0.0       0.0
 4 C  px              0.0       0.0       0.0       0.0       0.0      26.4
 4 C  py              0.0       0.0       0.0       0.0      26.4       0.0
 4 C  dx2y2           0.0       0.0       0.0       0.0       0.0       0.5
 4 C  dxy             0.0       0.0       0.0       0.0       0.5       0.0
 5 H  s               0.0       0.0       8.0       8.0       0.0      14.8
 5 H  px              0.0       0.0       0.7       0.7       0.0       0.4
 5 H  py              0.0       0.0       0.0       0.0       0.3       0.0
 6 H  s               0.0       0.0       8.0       8.0      11.1       3.7
 6 H  px              0.0       0.0       0.2       0.2       0.2       0.1
 6 H  py              0.0       0.0       0.5       0.6       0.1       0.2
 7 H  s               0.0       0.0       8.0       8.0      11.1       3.7
 7 H  px              0.0       0.0       0.2       0.2       0.2       0.1
 7 H  py              0.0       0.0       0.5       0.6       0.1       0.2

                      6         7         8         9        10        11   
                  -0.56974  -0.56974  -0.11302  -0.09590   0.19821   0.21204
                   2.00000   2.00000   1.03159   0.96841   0.00000   0.00000
                  --------  --------  --------  --------  --------  --------
 0 C  s               0.0       0.0       0.0       0.0      10.9      11.1
 0 C  pz              0.0       0.0      47.1      47.0       0.0       0.0
 0 C  px              0.0      26.5       0.0       0.0       0.0       0.0
 0 C  py             26.5       0.0       0.0       0.0       0.0       0.0
 0 C  dz2             0.0       0.0       0.0       0.0       0.6       0.7
 0 C  dx2y2           0.0       0.5       0.0       0.0       0.0       0.0
 0 C  dxy             0.5       0.0       0.0       0.0       0.0       0.0
 1 H  s               0.0      14.8       0.0       0.0      10.6      10.4
 1 H  pz              0.0       0.0       1.0       1.0       0.0       0.0
 1 H  px              0.0       0.4       0.0       0.0       2.2       2.3
 1 H  py              0.3       0.0       0.0       0.0       0.0       0.0
 2 H  s              11.1       3.7       0.0       0.0      10.6      10.4
 2 H  pz              0.0       0.0       1.0       1.0       0.0       0.0
 2 H  px              0.2       0.1       0.0       0.0       0.5       0.6
 2 H  py              0.1       0.2       0.0       0.0       1.6       1.7
 3 H  s              11.1       3.7       0.0       0.0      10.6      10.4
 3 H  pz              0.0       0.0       1.0       1.0       0.0       0.0
 3 H  px              0.2       0.1       0.0       0.0       0.5       0.6
 3 H  py              0.1       0.2       0.0       0.0       1.6       1.7
 4 C  s               0.0       0.0       0.0       0.0      10.9      11.1
 4 C  pz              0.0       0.0      47.1      47.0       0.0       0.0
 4 C  px              0.0      26.5       0.0       0.0       0.0       0.0
 4 C  py             26.5       0.0       0.0       0.0       0.0       0.0
 4 C  dz2             0.0       0.0       0.0       0.0       0.6       0.7
 4 C  dx2y2           0.0       0.5       0.0       0.0       0.0       0.0
 4 C  dxy             0.5       0.0       0.0       0.0       0.0       0.0
 5 H  s               0.0      14.8       0.0       0.0      10.6      10.4
 5 H  pz              0.0       0.0       1.0       1.0       0.0       0.0
 5 H  px              0.0       0.4       0.0       0.0       2.2       2.3
 5 H  py              0.3       0.0       0.0       0.0       0.0       0.0
 6 H  s              11.1       3.7       0.0       0.0      10.6      10.4
 6 H  pz              0.0       0.0       1.0       1.0       0.0       0.0
 6 H  px              0.2       0.1       0.0       0.0       0.5       0.6
 6 H  py              0.1       0.2       0.0       0.0       1.6       1.7
 7 H  s              11.1       3.7       0.0       0.0      10.6      10.4
 7 H  pz              0.0       0.0       1.0       1.0       0.0       0.0
 7 H  px              0.2       0.1       0.0       0.0       0.5       0.6
 7 H  py              0.1       0.2       0.0       0.0       1.6       1.7

                     12        13        14        15        16        17   
                   0.26545   0.26545   0.28026   0.28027   0.61857   0.61860
                   0.00000   0.00000   0.00000   0.00000   0.00000   0.00000
                  --------  --------  --------  --------  --------  --------
 0 C  px              6.7       0.0       6.9       0.0       0.0      26.4
 0 C  py              0.0       6.7       0.0       6.9      26.4       0.0
 0 C  dx2y2           0.5       0.0       0.6       0.0       0.0       5.1
 0 C  dxy             0.0       0.5       0.0       0.6       5.1       0.0
 1 H  s              24.2       0.0      23.6       0.0       0.0       9.0
 1 H  px              3.1       0.0       3.3       0.0       0.0       0.0
 1 H  py              0.0       1.3       0.0       1.4       3.3       0.0
 2 H  s               6.0      18.1       5.9      17.7       6.8       2.2
 2 H  px              0.2       1.6       0.2       1.7       0.7       1.8
 2 H  py              1.6       1.1       1.7       1.2       0.2       0.7
 3 H  s               6.0      18.1       5.9      17.7       6.8       2.2
 3 H  px              0.2       1.6       0.2       1.7       0.7       1.8
 3 H  py              1.6       1.1       1.7       1.2       0.2       0.7
 4 C  px              6.7       0.0       6.9       0.0       0.0      26.4
 4 C  py              0.0       6.7       0.0       6.9      26.4       0.0
 4 C  dx2y2           0.5       0.0       0.6       0.0       0.0       5.1
 4 C  dxy             0.0       0.5       0.0       0.6       5.1       0.0
 5 H  s              24.2       0.0      23.6       0.0       0.0       9.0
 5 H  px              3.1       0.0       3.3       0.0       0.0       0.0
 5 H  py              0.0       1.3       0.0       1.4       3.3       0.0
 6 H  s               6.0      18.1       5.9      17.7       6.8       2.2
 6 H  px              0.2       1.6       0.2       1.7       0.7       1.8
 6 H  py              1.6       1.1       1.7       1.2       0.2       0.7
 7 H  s               6.0      18.1       5.9      17.7       6.8       2.2
 7 H  px              0.2       1.6       0.2       1.7       0.7       1.8
 7 H  py              1.6       1.1       1.7       1.2       0.2       0.7

                     18        19        20        21        22        23   
                   0.62936   0.62939   0.63148   0.68203   0.70970   0.78655
                   0.00000   0.00000   0.00000   0.00000   0.00000   0.00000
                  --------  --------  --------  --------  --------  --------
 0 C  s               0.0       0.0      24.3      22.7       3.9       2.2
 0 C  pz              0.0       0.0       7.4       6.3      42.5      43.4
 0 C  px              0.0      26.7       0.0       0.0       0.0       0.0
 0 C  py             26.7       0.0       0.0       0.0       0.0       0.0
 0 C  dz2             0.0       0.0       3.8       4.4       0.8       0.8
 0 C  dx2y2           0.0       5.0       0.0       0.0       0.0       0.0
 0 C  dxy             5.0       0.0       0.0       0.0       0.0       0.0
 1 H  s               0.0       8.9       4.7       5.4       0.9       1.1
 1 H  px              0.0       0.0       0.1       0.1       0.0       0.0
 1 H  py              3.3       0.0       0.0       0.0       0.0       0.0
 2 H  s               6.7       2.2       4.7       5.4       0.9       1.1
 2 H  px              0.6       1.9       0.0       0.0       0.0       0.0
 2 H  py              0.2       0.6       0.1       0.1       0.0       0.0
 3 H  s               6.7       2.2       4.7       5.4       0.9       1.1
 3 H  px              0.6       1.9       0.0       0.0       0.0       0.0
 3 H  py              0.2       0.6       0.1       0.1       0.0       0.0
 4 C  s               0.0       0.0      24.3      22.7       3.9       2.2
 4 C  pz              0.0       0.0       7.4       6.3      42.5      43.4
 4 C  px              0.0      26.7       0.0       0.0       0.0       0.0
 4 C  py             26.7       0.0       0.0       0.0       0.0       0.0
 4 C  dz2             0.0       0.0       3.8       4.4       0.8       0.8
 4 C  dx2y2           0.0       5.0       0.0       0.0       0.0       0.0
 4 C  dxy             5.0       0.0       0.0       0.0       0.0       0.0
 5 H  s               0.0       8.9       4.7       5.4       0.9       1.1
 5 H  px              0.0       0.0       0.1       0.1       0.0       0.0
 5 H  py              3.3       0.0       0.0       0.0       0.0       0.0
 6 H  s               6.7       2.2       4.7       5.4       0.9       1.1
 6 H  px              0.6       1.9       0.0       0.0       0.0       0.0
 6 H  py              0.2       0.6       0.1       0.1       0.0       0.0
 7 H  s               6.7       2.2       4.7       5.4       0.9       1.1
 7 H  px              0.6       1.9       0.0       0.0       0.0       0.0
 7 H  py              0.2       0.6       0.1       0.1       0.0       0.0

                     24        25        26        27        28        29   
                   0.86432   0.87893   0.93793   0.93796   0.94831   0.94834
                   0.00000   0.00000   0.00000   0.00000   0.00000   0.00000
                  --------  --------  --------  --------  --------  --------
 0 C  s              21.9      24.7       0.0       0.0       0.0       0.0
 0 C  pz              0.0       0.2       0.0       0.0       0.0       0.0
 0 C  px              0.0       0.0      24.1       0.0      23.6       0.0
 0 C  py              0.0       0.0       0.0      24.1       0.0      23.6
 0 C  dz2             1.6       1.2       0.0       0.0       0.0       0.0
 0 C  dx2y2           0.0       0.0       2.7       0.0       2.8       0.0
 0 C  dxy             0.0       0.0       0.0       2.7       0.0       2.8
 1 H  s               6.3       5.6      11.0       0.0      11.6       0.0
 1 H  px              2.5       2.3       4.3       0.0       4.0       0.0
 1 H  py              0.0       0.0       0.0       0.1       0.0       0.1
 2 H  s               6.3       5.6       2.8       8.3       2.9       8.7
 2 H  px              0.6       0.6       0.1       1.1       0.1       1.0
 2 H  py              1.9       1.8       1.1       2.2       1.0       2.0
 3 H  s               6.3       5.6       2.8       8.3       2.9       8.7
 3 H  px              0.6       0.6       0.1       1.1       0.1       1.0
 3 H  py              1.9       1.8       1.1       2.2       1.0       2.0
 4 C  s              21.9      24.7       0.0       0.0       0.0       0.0
 4 C  pz              0.0       0.2       0.0       0.0       0.0       0.0
 4 C  px              0.0       0.0      24.1       0.0      23.6       0.0
 4 C  py              0.0       0.0       0.0      24.1       0.0      23.6
 4 C  dz2             1.6       1.2       0.0       0.0       0.0       0.0
 4 C  dx2y2           0.0       0.0       2.7       0.0       2.8       0.0
 4 C  dxy             0.0       0.0       0.0       2.7       0.0       2.8
 5 H  s               6.3       5.6      11.0       0.0      11.6       0.0
 5 H  px              2.5       2.3       4.3       0.0       4.0       0.0
 5 H  py              0.0       0.0       0.0       0.1       0.0       0.1
 6 H  s               6.3       5.6       2.8       8.3       2.9       8.7
 6 H  px              0.6       0.6       0.1       1.1       0.1       1.0
 6 H  py              1.9       1.8       1.1       2.2       1.0       2.0
 7 H  s               6.3       5.6       2.8       8.3       2.9       8.7
 7 H  px              0.6       0.6       0.1       1.1       0.1       1.0
 7 H  py              1.9       1.8       1.1       2.2       1.0       2.0

                     30        31        32        33        34        35   
                   1.46280   1.46281   1.46282   1.46283   1.74631   1.74631
                   0.00000   0.00000   0.00000   0.00000   0.00000   0.00000
                  --------  --------  --------  --------  --------  --------
 0 C  dxz            16.0       0.0      16.0       0.0       0.0       0.0
 0 C  dyz             0.0      16.0       0.0      16.0       0.0       0.0
 1 H  pz             22.7       0.0      22.7       0.0       0.0       0.0
 1 H  py              0.0       0.0       0.0       0.0      16.7      16.7
 2 H  pz              5.7      17.0       5.7      17.0       0.0       0.0
 2 H  px              0.0       0.0       0.0       0.0      12.5      12.5
 2 H  py              0.0       0.0       0.0       0.0       4.2       4.2
 3 H  pz              5.7      17.0       5.7      17.0       0.0       0.0
 3 H  px              0.0       0.0       0.0       0.0      12.5      12.5
 3 H  py              0.0       0.0       0.0       0.0       4.2       4.2
 4 C  dxz            16.0       0.0      16.0       0.0       0.0       0.0
 4 C  dyz             0.0      16.0       0.0      16.0       0.0       0.0
 5 H  pz             22.7       0.0      22.7       0.0       0.0       0.0
 5 H  py              0.0       0.0       0.0       0.0      16.7      16.7
 6 H  pz              5.7      17.0       5.7      17.0       0.0       0.0
 6 H  px              0.0       0.0       0.0       0.0      12.5      12.5
 6 H  py              0.0       0.0       0.0       0.0       4.2       4.2
 7 H  pz              5.7      17.0       5.7      17.0       0.0       0.0
 7 H  px              0.0       0.0       0.0       0.0      12.5      12.5
 7 H  py              0.0       0.0       0.0       0.0       4.2       4.2

                     36        37        38        39        40        41   
                   1.87355   1.87361   1.87993   1.87999   2.00323   2.02708
                   0.00000   0.00000   0.00000   0.00000   0.00000   0.00000
                  --------  --------  --------  --------  --------  --------
 0 C  pz              0.0       0.0       0.0       0.0       2.9       3.0
 0 C  px              4.6       0.0       4.7       0.0       0.0       0.0
 0 C  py              0.0       4.6       0.0       4.7       0.0       0.0
 0 C  dz2             0.0       0.0       0.0       0.0       0.1       0.1
 0 C  dx2y2           7.6       0.0       7.4       0.0       0.0       0.0
 0 C  dxy             0.0       7.6       0.0       7.4       0.0       0.0
 1 H  s               2.0       0.0       2.1       0.0       0.0       0.0
 1 H  pz              0.0       0.0       0.0       0.0      15.7      15.6
 1 H  px              6.9       0.0       6.9       0.0       0.0       0.0
 1 H  py              0.0      16.3       0.0      16.3       0.0       0.0
 2 H  s               0.5       1.5       0.5       1.5       0.0       0.0
 2 H  pz              0.0       0.0       0.0       0.0      15.7      15.6
 2 H  px             13.6       0.4      13.6       0.4       0.0       0.0
 2 H  py              0.4       8.9       0.4       8.9       0.0       0.0
 3 H  s               0.5       1.5       0.5       1.5       0.0       0.0
 3 H  pz              0.0       0.0       0.0       0.0      15.7      15.6
 3 H  px             13.6       0.4      13.6       0.4       0.0       0.0
 3 H  py              0.4       8.9       0.4       8.9       0.0       0.0
 4 C  pz              0.0       0.0       0.0       0.0       2.9       3.0
 4 C  px              4.6       0.0       4.7       0.0       0.0       0.0
 4 C  py              0.0       4.6       0.0       4.7       0.0       0.0
 4 C  dz2             0.0       0.0       0.0       0.0       0.1       0.1
 4 C  dx2y2           7.6       0.0       7.4       0.0       0.0       0.0
 4 C  dxy             0.0       7.6       0.0       7.4       0.0       0.0
 5 H  s               2.0       0.0       2.1       0.0       0.0       0.0
 5 H  pz              0.0       0.0       0.0       0.0      15.7      15.6
 5 H  px              6.9       0.0       6.9       0.0       0.0       0.0
 5 H  py              0.0      16.3       0.0      16.3       0.0       0.0
 6 H  s               0.5       1.5       0.5       1.5       0.0       0.0
 6 H  pz              0.0       0.0       0.0       0.0      15.7      15.6
 6 H  px             13.6       0.4      13.6       0.4       0.0       0.0
 6 H  py              0.4       8.9       0.4       8.9       0.0       0.0
 7 H  s               0.5       1.5       0.5       1.5       0.0       0.0
 7 H  pz              0.0       0.0       0.0       0.0      15.7      15.6
 7 H  px             13.6       0.4      13.6       0.4       0.0       0.0
 7 H  py              0.4       8.9       0.4       8.9       0.0       0.0

                     42        43        44        45        46        47   
                   2.15050   2.15868   2.55057   2.55058   2.55058   2.55059
                   0.00000   0.00000   0.00000   0.00000   0.00000   0.00000
                  --------  --------  --------  --------  --------  --------
 0 C  s               3.3       3.5       0.0       0.0       0.0       0.0
 0 C  dz2            31.5      31.0       0.0       0.0       0.0       0.0
 0 C  dxz             0.0       0.0      33.7       0.0      33.9       0.0
 0 C  dyz             0.0       0.0       0.0      33.7       0.0      33.9
 0 C  dx2y2           0.0       0.0       0.1       0.0       0.0       0.0
 0 C  dxy             0.0       0.0       0.0       0.1       0.0       0.0
 1 H  s               0.3       0.3       0.0       0.0       0.0       0.0
 1 H  pz              0.0       0.1      10.5       0.0      10.6       0.0
 1 H  px              4.7       4.8       0.1       0.0       0.0       0.0
 1 H  py              0.0       0.0       0.0       0.1       0.0       0.0
 2 H  s               0.3       0.3       0.0       0.0       0.0       0.0
 2 H  pz              0.0       0.1       2.6       7.9       2.7       8.0
 2 H  px              1.2       1.2       0.0       0.1       0.0       0.0
 2 H  py              3.6       3.6       0.1       0.0       0.0       0.0
 3 H  s               0.3       0.3       0.0       0.0       0.0       0.0
 3 H  pz              0.0       0.1       2.6       7.9       2.7       8.0
 3 H  px              1.2       1.2       0.0       0.1       0.0       0.0
 3 H  py              3.6       3.6       0.1       0.0       0.0       0.0
 4 C  s               3.3       3.5       0.0       0.0       0.0       0.0
 4 C  dz2            31.5      31.0       0.0       0.0       0.0       0.0
 4 C  dxz             0.0       0.0      33.7       0.0      33.9       0.0
 4 C  dyz             0.0       0.0       0.0      33.7       0.0      33.9
 4 C  dx2y2           0.0       0.0       0.1       0.0       0.0       0.0
 4 C  dxy             0.0       0.0       0.0       0.1       0.0       0.0
 5 H  s               0.3       0.3       0.0       0.0       0.0       0.0
 5 H  pz              0.0       0.1      10.5       0.0      10.6       0.0
 5 H  px              4.7       4.8       0.1       0.0       0.0       0.0
 5 H  py              0.0       0.0       0.0       0.1       0.0       0.0
 6 H  s               0.3       0.3       0.0       0.0       0.0       0.0
 6 H  pz              0.0       0.1       2.6       7.9       2.7       8.0
 6 H  px              1.2       1.2       0.0       0.1       0.0       0.0
 6 H  py              3.6       3.6       0.1       0.0       0.0       0.0
 7 H  s               0.3       0.3       0.0       0.0       0.0       0.0
 7 H  pz              0.0       0.1       2.6       7.9       2.7       8.0
 7 H  px              1.2       1.2       0.0       0.1       0.0       0.0
 7 H  py              3.6       3.6       0.1       0.0       0.0       0.0

                     48        49        50        51        52        53   
                   2.55295   2.55299   2.55690   2.55694   3.19752   3.20308
                   0.00000   0.00000   0.00000   0.00000   0.00000   0.00000
                  --------  --------  --------  --------  --------  --------
 0 C  s               0.0       0.0       0.0       0.0      12.3      12.3
 0 C  px              0.0       6.0       0.0       6.0       0.0       0.0
 0 C  py              6.0       0.0       6.0       0.0       0.0       0.0
 0 C  dz2             0.0       0.0       0.0       0.0      11.6      11.7
 0 C  dxz             0.0       0.3       0.0       0.1       0.0       0.0
 0 C  dyz             0.3       0.0       0.1       0.0       0.0       0.0
 0 C  dx2y2           0.0      10.6       0.0      10.7       0.0       0.0
 0 C  dxy            10.6       0.0      10.7       0.0       0.0       0.0
 1 H  s               0.0       0.7       0.0       0.7       2.4       2.4
 1 H  pz              0.0       0.1       0.0       0.0       0.0       0.0
 1 H  px              0.0      10.6       0.0      10.7       6.3       6.3
 1 H  py             10.7       0.0      10.7       0.0       0.0       0.0
 2 H  s               0.5       0.2       0.5       0.2       2.4       2.4
 2 H  px              8.0       2.7       8.0       2.7       1.6       1.6
 2 H  py              2.6       8.0       2.7       8.0       4.7       4.7
 3 H  s               0.5       0.2       0.5       0.2       2.4       2.4
 3 H  px              8.0       2.7       8.0       2.7       1.6       1.6
 3 H  py              2.6       8.0       2.7       8.0       4.7       4.7
 4 C  s               0.0       0.0       0.0       0.0      12.3      12.3
 4 C  px              0.0       6.0       0.0       6.0       0.0       0.0
 4 C  py              6.0       0.0       6.0       0.0       0.0       0.0
 4 C  dz2             0.0       0.0       0.0       0.0      11.6      11.7
 4 C  dxz             0.0       0.3       0.0       0.1       0.0       0.0
 4 C  dyz             0.3       0.0       0.1       0.0       0.0       0.0
 4 C  dx2y2           0.0      10.6       0.0      10.7       0.0       0.0
 4 C  dxy            10.6       0.0      10.7       0.0       0.0       0.0
 5 H  s               0.0       0.7       0.0       0.7       2.4       2.4
 5 H  pz              0.0       0.1       0.0       0.0       0.0       0.0
 5 H  px              0.0      10.6       0.0      10.7       6.3       6.3
 5 H  py             10.7       0.0      10.7       0.0       0.0       0.0
 6 H  s               0.5       0.2       0.5       0.2       2.4       2.4
 6 H  px              8.0       2.7       8.0       2.7       1.6       1.6
 6 H  py              2.6       8.0       2.7       8.0       4.7       4.7
 7 H  s               0.5       0.2       0.5       0.2       2.4       2.4
 7 H  px              8.0       2.7       8.0       2.7       1.6       1.6
 7 H  py              2.6       8.0       2.7       8.0       4.7       4.7

                     54        55        56        57   
                   3.28031   3.28040   3.28143   3.28152
                   0.00000   0.00000   0.00000   0.00000
                  --------  --------  --------  --------
 0 C  px              5.7       0.0       5.7       0.0
 0 C  py              0.0       5.7       0.0       5.7
 0 C  dx2y2          23.0       0.0      22.9       0.0
 0 C  dxy             0.0      23.0       0.0      22.9
 1 H  s               5.0       0.0       5.0       0.0
 1 H  px              8.0       0.0       8.0       0.0
 1 H  py              0.0       1.3       0.0       1.3
 2 H  s               1.2       3.7       1.2       3.7
 2 H  px              2.4       0.5       2.4       0.5
 2 H  py              0.5       5.8       0.5       5.8
 3 H  s               1.2       3.7       1.2       3.7
 3 H  px              2.4       0.5       2.4       0.5
 3 H  py              0.5       5.8       0.5       5.8
 4 C  px              5.7       0.0       5.7       0.0
 4 C  py              0.0       5.7       0.0       5.7
 4 C  dx2y2          23.0       0.0      22.9       0.0
 4 C  dxy             0.0      23.0       0.0      22.9
 5 H  s               5.0       0.0       5.0       0.0
 5 H  px              8.0       0.0       8.0       0.0
 5 H  py              0.0       1.3       0.0       1.3
 6 H  s               1.2       3.7       1.2       3.7
 6 H  px              2.4       0.5       2.4       0.5
 6 H  py              0.5       5.8       0.5       5.8
 7 H  s               1.2       3.7       1.2       3.7
 7 H  px              2.4       0.5       2.4       0.5
 7 H  py              0.5       5.8       0.5       5.8

----------------------------
LOEWDIN REDUCED ACTIVE MOs  
----------------------------

                      6         7         8         9        10        11   
                  -0.56974  -0.56974  -0.11302  -0.09590   0.19821   0.21204
                   2.00000   2.00000   1.03159   0.96841   0.00000   0.00000
                  --------  --------  --------  --------  --------  --------
 0 C  s               0.0       0.0       0.0       0.0      10.9      11.1
 0 C  pz              0.0       0.0      47.1      47.0       0.0       0.0
 0 C  px              0.0      26.5       0.0       0.0       0.0       0.0
 0 C  py             26.5       0.0       0.0       0.0       0.0       0.0
 1 H  s               0.0      14.8       0.0       0.0      10.6      10.4
 2 H  s              11.1       3.7       0.0       0.0      10.6      10.4
 3 H  s              11.1       3.7       0.0       0.0      10.6      10.4
 4 C  s               0.0       0.0       0.0       0.0      10.9      11.1
 4 C  pz              0.0       0.0      47.1      47.0       0.0       0.0
 4 C  px              0.0      26.5       0.0       0.0       0.0       0.0
 4 C  py             26.5       0.0       0.0       0.0       0.0       0.0
 5 H  s               0.0      14.8       0.0       0.0      10.6      10.4
 6 H  s              11.1       3.7       0.0       0.0      10.6      10.4
 7 H  s              11.1       3.7       0.0       0.0      10.6      10.4

------------------------------------------------------------------------------
                           ORCA POPULATION ANALYSIS
------------------------------------------------------------------------------
Input electron density              ... d3h.scfp
Input spin density                  ... d3h.scfr
BaseName (.gbw .S,...)              ... d3h

                    ********************************
                    * MULLIKEN POPULATION ANALYSIS *
                    ********************************

------------------------------------------
MULLIKEN ATOMIC CHARGES AND SPIN DENSITIES
------------------------------------------
   0 C :   -0.208635    0.492081
   1 H :    0.069557    0.002639
   2 H :    0.069539    0.002640
   3 H :    0.069539    0.002640
   4 C :   -0.208635    0.492081
   5 H :    0.069557    0.002639
   6 H :    0.069539    0.002640
   7 H :    0.069539    0.002640
Sum of atomic charges       :    0.0000000
Sum of atomic spin densities:    1.0000000

---------------------------------------------------
MULLIKEN REDUCED ORBITAL CHARGES AND SPIN DENSITIES
---------------------------------------------------
CHARGE
  0 C s       :     3.215152  s :     3.215152
      pz      :     0.984129  p :     2.974930
      px      :     0.995394
      py      :     0.995407
      dz2     :     0.001963  d :     0.018553
      dxz     :     0.000000
      dyz     :     0.000000
      dx2y2   :     0.008294
      dxy     :     0.008296
  1 H s       :     0.902916  s :     0.902916
      pz      :     0.005242  p :     0.027527
      px      :     0.018859
      py      :     0.003427
  2 H s       :     0.902932  s :     0.902932
      pz      :     0.005243  p :     0.027529
      px      :     0.007286
      py      :     0.015001
  3 H s       :     0.902932  s :     0.902932
      pz      :     0.005243  p :     0.027529
      px      :     0.007286
      py      :     0.015001
  4 C s       :     3.215152  s :     3.215152
      pz      :     0.984129  p :     2.974930
      px      :     0.995394
      py      :     0.995407
      dz2     :     0.001963  d :     0.018553
      dxz     :     0.000000
      dyz     :     0.000000
      dx2y2   :     0.008294
      dxy     :     0.008296
  5 H s       :     0.902916  s :     0.902916
      pz      :     0.005242  p :     0.027527
      px      :     0.018859
      py      :     0.003427
  6 H s       :     0.902932  s :     0.902932
      pz      :     0.005243  p :     0.027529
      px      :     0.007286
      py      :     0.015001
  7 H s       :     0.902932  s :     0.902932
      pz      :     0.005243  p :     0.027529
      px      :     0.007286
      py      :     0.015001

SPIN
  0 C s       :     0.000030  s :     0.000030
      pz      :     0.492051  p :     0.492051
      px      :     0.000000
      py      :     0.000000
      dz2     :     0.000000  d :     0.000000
      dxz     :     0.000000
      dyz     :     0.000000
      dx2y2   :    -0.000000
      dxy     :     0.000000
  1 H s       :     0.000015  s :     0.000015
      pz      :     0.002624  p :     0.002624
      px      :    -0.000000
      py      :     0.000000
  2 H s       :     0.000015  s :     0.000015
      pz      :     0.002625  p :     0.002625
      px      :    -0.000000
      py      :    -0.000000
  3 H s       :     0.000015  s :     0.000015
      pz      :     0.002625  p :     0.002625
      px      :    -0.000000
      py      :    -0.000000
  4 C s       :     0.000030  s :     0.000030
      pz      :     0.492051  p :     0.492051
      px      :     0.000000
      py      :     0.000000
      dz2     :     0.000000  d :     0.000000
      dxz     :     0.000000
      dyz     :     0.000000
      dx2y2   :    -0.000000
      dxy     :     0.000000
  5 H s       :     0.000015  s :     0.000015
      pz      :     0.002624  p :     0.002624
      px      :    -0.000000
      py      :     0.000000
  6 H s       :     0.000015  s :     0.000015
      pz      :     0.002625  p :     0.002625
      px      :    -0.000000
      py      :    -0.000000
  7 H s       :     0.000015  s :     0.000015
      pz      :     0.002625  p :     0.002625
      px      :    -0.000000
      py      :    -0.000000


                     *******************************
                     * LOEWDIN POPULATION ANALYSIS *
                     *******************************

-----------------------------------------
LOEWDIN ATOMIC CHARGES AND SPIN DENSITIES
-----------------------------------------
   0 C :   -0.038016    0.470509
   1 H :    0.012686    0.009829
   2 H :    0.012665    0.009831
   3 H :    0.012665    0.009831
   4 C :   -0.038016    0.470509
   5 H :    0.012686    0.009829
   6 H :    0.012665    0.009831
   7 H :    0.012665    0.009831

--------------------------------------------------
LOEWDIN REDUCED ORBITAL CHARGES AND SPIN DENSITIES
--------------------------------------------------
CHARGE
  0 C s       :     2.939330  s :     2.939330
      pz      :     0.941006  p :     3.057483
      px      :     1.058229
      py      :     1.058248
      dz2     :     0.003381  d :     0.041203
      dxz     :     0.000000
      dyz     :     0.000000
      dx2y2   :     0.018909
      dxy     :     0.018914
  1 H s       :     0.911555  s :     0.911555
      pz      :     0.019609  p :     0.075760
      px      :     0.045957
      py      :     0.010194
  2 H s       :     0.911564  s :     0.911564
      pz      :     0.019613  p :     0.075771
      px      :     0.019139
      py      :     0.037018
  3 H s       :     0.911564  s :     0.911564
      pz      :     0.019613  p :     0.075771
      px      :     0.019139
      py      :     0.037018
  4 C s       :     2.939330  s :     2.939330
      pz      :     0.941006  p :     3.057483
      px      :     1.058229
      py      :     1.058248
      dz2     :     0.003381  d :     0.041203
      dxz     :     0.000000
      dyz     :     0.000000
      dx2y2   :     0.018909
      dxy     :     0.018914
  5 H s       :     0.911555  s :     0.911555
      pz      :     0.019609  p :     0.075760
      px      :     0.045957
      py      :     0.010194
  6 H s       :     0.911564  s :     0.911564
      pz      :     0.019613  p :     0.075771
      px      :     0.019139
      py      :     0.037018
  7 H s       :     0.911564  s :     0.911564
      pz      :     0.019613  p :     0.075771
      px      :     0.019139
      py      :     0.037018

SPIN
  0 C s       :     0.000027  s :     0.000027
      pz      :     0.470481  p :     0.470481
      px      :     0.000000
      py      :    -0.000000
      dz2     :     0.000001  d :     0.000001
      dxz     :     0.000000
      dyz     :    -0.000000
      dx2y2   :     0.000000
      dxy     :    -0.000000
  1 H s       :     0.000017  s :     0.000017
      pz      :     0.009811  p :     0.009812
      px      :     0.000001
      py      :    -0.000000
  2 H s       :     0.000017  s :     0.000017
      pz      :     0.009813  p :     0.009814
      px      :     0.000000
      py      :     0.000000
  3 H s       :     0.000017  s :     0.000017
      pz      :     0.009813  p :     0.009814
      px      :     0.000000
      py      :     0.000000
  4 C s       :     0.000027  s :     0.000027
      pz      :     0.470481  p :     0.470481
      px      :     0.000000
      py      :    -0.000000
      dz2     :     0.000001  d :     0.000001
      dxz     :     0.000000
      dyz     :     0.000000
      dx2y2   :     0.000000
      dxy     :    -0.000000
  5 H s       :     0.000017  s :     0.000017
      pz      :     0.009811  p :     0.009812
      px      :     0.000001
      py      :    -0.000000
  6 H s       :     0.000017  s :     0.000017
      pz      :     0.009813  p :     0.009814
      px      :     0.000000
      py      :     0.000000
  7 H s       :     0.000017  s :     0.000017
      pz      :     0.009813  p :     0.009814
      px      :     0.000000
      py      :     0.000000


                      *****************************
                      * MAYER POPULATION ANALYSIS *
                      *****************************

  NA   - Mulliken gross atomic population
  ZA   - Total nuclear charge
  QA   - Mulliken gross atomic charge
  VA   - Mayer's total valence
  BVA  - Mayer's bonded valence
  FA   - Mayer's free valence

  ATOM       NA         ZA         QA         VA         BVA        FA
  0 C      6.2086     6.0000    -0.2086     3.9529     2.9737     0.9792
  1 H      0.9304     1.0000     0.0696     0.9821     0.9781     0.0040
  2 H      0.9305     1.0000     0.0695     0.9821     0.9781     0.0040
  3 H      0.9305     1.0000     0.0695     0.9821     0.9781     0.0040
  4 C      6.2086     6.0000    -0.2086     3.9529     2.9737     0.9792
  5 H      0.9304     1.0000     0.0696     0.9821     0.9781     0.0040
  6 H      0.9305     1.0000     0.0695     0.9821     0.9781     0.0040
  7 H      0.9305     1.0000     0.0695     0.9821     0.9781     0.0040

  Mayer bond orders larger than 0.100000
B(  0-C ,  1-H ) :   0.9907 B(  0-C ,  2-H ) :   0.9907 B(  0-C ,  3-H ) :   0.9907 
B(  4-C ,  5-H ) :   0.9907 B(  4-C ,  6-H ) :   0.9907 B(  4-C ,  7-H ) :   0.9907 


------------------
MOLECULAR ORBITALS
------------------
                      0         1         2         3         4         5   
                 -11.22947 -11.22946  -0.88628  -0.88563  -0.57023  -0.57022
                   2.00000   2.00000   2.00000   2.00000   2.00000   2.00000
                  --------  --------  --------  --------  --------  --------
  0C   1s        -0.700657  0.700681 -0.176519 -0.176700  0.000000  0.000007
  0C   2s        -0.025428  0.025184  0.338994  0.339364 -0.000000 -0.000016
  0C   3s         0.016291 -0.015593  0.146515  0.147081 -0.000000 -0.000021
  0C   1pz       -0.000056 -0.000051 -0.000011 -0.000343  0.000000  0.000000
  0C   1px        0.000000 -0.000000 -0.000015 -0.000015 -0.000000 -0.303253
  0C   1py       -0.000000  0.000000 -0.000000 -0.000000 -0.303261  0.000000
  0C   2pz        0.000148  0.000125 -0.000213 -0.000503  0.000000  0.000000
  0C   2px       -0.000000  0.000000  0.000001  0.000001 -0.000000 -0.126567
  0C   2py        0.000000 -0.000000 -0.000000 -0.000000 -0.126565  0.000000
  0C   1dz2       0.001168 -0.001207 -0.006084 -0.006170  0.000000 -0.000000
  0C   1dxz      -0.000000 -0.000000  0.000000  0.000000  0.000000  0.000031
  0C   1dyz      -0.000000  0.000000 -0.000000 -0.000000  0.000031 -0.000000
  0C   1dx2y2    -0.000000  0.000000 -0.000000 -0.000000 -0.000000 -0.016043
  0C   1dxy       0.000000 -0.000000  0.000000  0.000000  0.016046 -0.000000
  1H   1s         0.001651 -0.001726  0.143109  0.143321 -0.000000 -0.266963
  1H   2s        -0.003757  0.003619  0.020620  0.020387 -0.000000 -0.097606
  1H   1pz       -0.000024 -0.000021  0.000001 -0.000027  0.000000  0.000031
  1H   1px       -0.000950  0.000960 -0.017560 -0.017561  0.000000  0.014298
  1H   1py       -0.000000  0.000000  0.000000  0.000000 -0.007042  0.000000
  2H   1s         0.001651 -0.001726  0.143134  0.143345 -0.231195  0.133476
  2H   2s        -0.003758  0.003620  0.020625  0.020391 -0.084526  0.048799
  2H   1pz       -0.000024 -0.000021  0.000001 -0.000027  0.000027 -0.000015
  2H   1px        0.000475 -0.000480  0.008781  0.008781 -0.009241 -0.001707
  2H   1py       -0.000822  0.000831 -0.015210 -0.015210  0.008961 -0.009240
  3H   1s         0.001651 -0.001726  0.143134  0.143345  0.231195  0.133476
  3H   2s        -0.003758  0.003620  0.020625  0.020391  0.084526  0.048799
  3H   1pz       -0.000024 -0.000021  0.000001 -0.000027 -0.000027 -0.000015
  3H   1px        0.000475 -0.000480  0.008781  0.008781  0.009241 -0.001707
  3H   1py        0.000822 -0.000831  0.015210  0.015210  0.008961  0.009240
  4C   1s         0.700657  0.700681 -0.176519  0.176700  0.000000  0.000007
  4C   2s         0.025428  0.025184  0.338994 -0.339364 -0.000000 -0.000016
  4C   3s        -0.016291 -0.015593  0.146515 -0.147081 -0.000000 -0.000021
  4C   1pz       -0.000056  0.000051  0.000011 -0.000343 -0.000000 -0.000000
  4C   1px       -0.000000 -0.000000 -0.000015  0.000015 -0.000000 -0.303253
  4C   1py        0.000000  0.000000  0.000000 -0.000000 -0.303261  0.000000
  4C   2pz        0.000148 -0.000125  0.000213 -0.000503 -0.000000 -0.000000
  4C   2px        0.000000  0.000000  0.000001 -0.000001 -0.000000 -0.126567
  4C   2py        0.000000 -0.000000  0.000000 -0.000000 -0.126565  0.000000
  4C   1dz2      -0.001168 -0.001207 -0.006084  0.006170 -0.000000 -0.000000
  4C   1dxz      -0.000000  0.000000 -0.000000  0.000000 -0.000000 -0.000031
  4C   1dyz      -0.000000  0.000000 -0.000000 -0.000000 -0.000031  0.000000
  4C   1dx2y2     0.000000  0.000000 -0.000000  0.000000 -0.000000 -0.016043
  4C   1dxy      -0.000000 -0.000000 -0.000000  0.000000  0.016046 -0.000000
  5H   1s        -0.001651 -0.001726  0.143109 -0.143321 -0.000000 -0.266963
  5H   2s         0.003757  0.003619  0.020620 -0.020387 -0.000000 -0.097606
  5H   1pz       -0.000024  0.000021 -0.000001 -0.000027 -0.000000 -0.000031
  5H   1px        0.000950  0.000960 -0.017560  0.017561  0.000000  0.014298
  5H   1py        0.000000  0.000000 -0.000000  0.000000 -0.007042  0.000000
  6H   1s        -0.001651 -0.001726  0.143134 -0.143345 -0.231195  0.133476
  6H   2s         0.003758  0.003620  0.020625 -0.020391 -0.084526  0.048799
  6H   1pz       -0.000024  0.000021 -0.000001 -0.000027 -0.000027  0.000015
  6H   1px       -0.000475 -0.000480  0.008781 -0.008781 -0.009241 -0.001707
  6H   1py        0.000822  0.000831 -0.015210  0.015210  0.008961 -0.009240
  7H   1s        -0.001651 -0.001726  0.143134 -0.143345  0.231195  0.133476
  7H   2s         0.003758  0.003620  0.020625 -0.020391  0.084526  0.048799
  7H   1pz       -0.000024  0.000021 -0.000001 -0.000027  0.000027  0.000015
[...]

 --------------------
  MULT 1, ROOT 0 
 --------------------
   --- Canonicalize Internal Space
   --- Canonicalize External Space

     D1, D2 Build      ... done in        0.0 sec
     D3 Build          ... CI space truncated: 3 -> 2 CFGs 
                       ... RI space truncated: 3 -> 3 CFGs 
                       ... 
                       ... correcting norm (1.000000e+00) 
                       ... done in        0.0 sec
     Hole densities    ... done in        0.0 sec
     Calc Fock         ... done in        0.0 sec
 CASPT2 intermediates avoiding 4-th order density matrix   ...

     Class VIJAB       ... done in        0.0 sec
     Class ITAB        ... Skipped =         0 of        27648 LowestEV= 9.533517e-02 ... done in        0.0 sec 
     Class TUAB        ...  ERROR! All eigenvalues are <= 0 !!
Skipped =      6912 of         9216 LowestEV= 2.103474e-01 ... done in        0.0 sec 
     Class IJTA        ... Skipped =         0 of         3456 LowestEV=-1.136850e-01 ... done in        0.0 sec 
     Class IJTU        ...  ERROR! All eigenvalues are <= 0 !!
Skipped =        63 of           84 LowestEV= 0.000000e+00 ... done in        0.0 sec 
     Class ITUA/ITAU   ... Skipped =      1152 of         2304 LowestEV=-1.967705e-02 ... done in        0.0 sec 
     Class TUVA        ... CI space truncated: 3 -> 2 CFGs 
                       ... RI space truncated: 3 -> 3 CFGs 
                       ... 
                       ... correcting norm (1.000000e+00) 
                       ... Skipped =       288 of          384 LowestEV= 9.533517e-02 ... done in        0.0 sec 
     Class ITUV        ... CI space truncated: 3 -> 2 CFGs 
                       ... RI space truncated: 3 -> 3 CFGs 
                       ... 
                       ... correcting norm (1.000000e+00) 
                       ... Skipped =         6 of           48 LowestEV=-1.136850e-01 ... done in        0.0 sec 

-----------------------------------
 CASPT2-D Energy =     -0.268623772
-----------------------------------

Class V0_ijab: dE=     -0.185188096
Class Vm1_iab: dE=     -0.059362124
Class Vm2_ab : dE=     -0.000027441
Class V1_ija : dE=     -0.009783257
Class V2_ij  : dE=     -0.000012341
Class V0_ia  : dE=     -0.014248453
Class Vm1_a  : dE=     -0.000001687
Class V1_i   : dE=     -0.000000375


smallest energy denominator IJAB =      1.536024480
smallest energy denominator ITAB =      1.061541479
smallest energy denominator IJTA =      1.224145368
smallest energy denominator TUAB =      0.606735530
smallest energy denominator IJTU =      0.931943309
smallest energy denominator ITAU =      0.748335187
smallest energy denominator TUVA =      0.293529239
smallest energy denominator ITUV =      0.456133128

 Iter           EPT2     EHylleraas  residual norm    Time
    1    -0.26862377    -0.26828865     0.01280219     0.0
    2    -0.26828865    -0.26838398     0.00083340     0.0
    3    -0.26838351    -0.26838438     0.00005029     0.0
    4    -0.26838430    -0.26838438     0.00000226     0.0
    5    -0.26838438    -0.26838438     0.00000010     0.0

 CASPT2 calculation converged in 5 iterations 


 Reference Weight =      0.915225121

 ===============================================================
                       CASPT2 Results  
 ===============================================================
   *********************
    MULT 3, ROOT 0 
   *********************

  Class V0_ijab :	 dE = -0.185147658111 
  Class Vm1_iab :	 dE = -0.059391122044 
  Class Vm2_ab  :	 dE = -0.000019872896 
  Class V1_ija  :	 dE = -0.009738269356 
  Class V2_ij   :	 dE = -0.000002958047 
  Class V0_ia   :	 dE = -0.014013663318 
  Class Vm1_a   :	 dE = -0.000001770706 
  Class V1_i    :	 dE = -0.000000435475 

 --------------------------------------------------------------- 
 	 Total Energy Correction : dE = -0.26831574995281
 --------------------------------------------------------------- 
 	 Reference  Energy       : E0 = -79.05760302084542
 	 Reference Weight        : W0 = 0.91532863806183
 --------------------------------------------------------------- 
 	 Total Energy (E0+dE)    : E  = -79.32591877079822
 --------------------------------------------------------------- 

   *********************
    MULT 1, ROOT 0 
   *********************

  Class V0_ijab :	 dE = -0.185147570332 
  Class Vm1_iab :	 dE = -0.059293060532 
  Class Vm2_ab  :	 dE = -0.000027398012 
  Class V1_ija  :	 dE = -0.009745011940 
  Class V2_ij   :	 dE = -0.000012715217 
  Class V0_ia   :	 dE = -0.014156547570 
  Class Vm1_a   :	 dE = -0.000001616578 
  Class V1_i    :	 dE = -0.000000460800 

 --------------------------------------------------------------- 
 	 Total Energy Correction : dE = -0.26838438098095
 --------------------------------------------------------------- 
 	 Reference  Energy       : E0 = -79.05787722544363
 	 Reference Weight        : W0 = 0.91522512109853
 --------------------------------------------------------------- 
 	 Total Energy (E0+dE)    : E  = -79.32626160642458
 --------------------------------------------------------------- 

-----------------------
 CASPT2 TOTAL ENERGIES
-----------------------
# This can be used as input for the MRCI SOC block to replace
# the diagonal energies within the QDPT treatment. 
# Note that multiplicty blocks must be ordered in decending order e.g. mult 5,3,1! 

STATE   ROOT MULT  Energy/a.u.   MRCI SOC BLOCK INPUT (Eh)
   0:    0    3  -79.325919    EDIAG[0]    -79.325918771
   1:    0    1  -79.326262    EDIAG[1]    -79.326261606

-----------------------------
 CASPT2 TRANSITION ENERGIES
------------------------------

LOWEST ROOT (ROOT 0, MULT 1) =    -79.326261606 Eh -2158.577 eV

STATE ROOT MULT  DE/a.u.     DE/eV    DE/cm**-1
   1:   0    3   0.000343     0.009     75.2

--------------------------------------------
 CASPT2 CORRECTION TO THE TRANSITION ENERGY
--------------------------------------------
STATE  ROOT MULT DE/a.u. DE/eV 	DE/cm**-1
   1:    0    3   0.000069      0.002     15.1


--------------
TIMINGS CASPT2
--------------

Sum of individual times        ...        0.9 sec (100.0%)

   Integraltransformation      ...        0.6 sec ( 66.8%)
   Building Fock and alike     ...        0.1 sec (  6.6%)
   Building D2,D1              ...        0.0 sec (  0.0%)
   Building D3                 ...        0.0 sec (  0.0%)
   Building D4                 ...        0.0 sec (  0.0%)
   All densities               ...        0.0 sec (  0.1%)
   Hole Densities              ...        0.0 sec (  0.0%)
   Re-Canonicalization         ...        0.1 sec (  8.8%)
   Iterations                  ...        0.1 sec ( 17.2%)
   Classes Vijab               ...        0.0 sec (  0.0%)
   Class Viab                  ...        0.0 sec (  0.1%)
   Class Vab                   ...        0.0 sec (  0.1%)
   Class Vija                  ...        0.0 sec (  0.1%)
   Class Vij                   ...        0.0 sec (  0.1%)
   Class Via                   ...        0.0 sec (  0.0%)
   Class Va                    ...        0.0 sec (  0.1%)
   Class Vi                    ...        0.0 sec (  0.0%)
   All Classes                 ...        0.2 sec ( 17.7%)

-------------------------------------------------------------
 Forming the transition densities       ... done in 0.0 sec
-------------------------------------------------------------

--------------
CASSCF TIMINGS
--------------

Total time                       ...        1.2 sec
Sum of individual times          ...        1.1 sec ( 95.8%)

Calculation of AO operators
   F(Core) operator              ...        0.1 sec (  5.0%)
   G(Act) operator               ...        0.1 sec (  5.1%)
Calculation of MO transformed quantities
   J(MO) operators               ...        0.1 sec ( 10.5%)
   AO->MO one electron integrals ...        0.0 sec (  0.1%)
Configuration interaction steps
   CI-setup phase                ...        0.0 sec (  0.4%)
   CI-solution phase             ...        0.0 sec (  0.6%)
   Generation of densities       ...        0.0 sec (  0.0%)
Orbital improvement steps
   Orbital gradient              ...        0.0 sec (  0.0%)
CPCM steps
   Total CPCM time               ...        0.0 sec (  0.0%)
PT2 
   CASPT2 time                   ...        0.9 sec ( 73.8%)
Properties                       ...        0.0 sec (  0.2%)
   SOC integral calculation      ...        0.0 sec (  0.0%)
   SSC RMEs (incl. integrals)    ...        0.0 sec (  0.0%)
   SOC RMEs                      ...        0.0 sec (  0.0%)

Maximum memory used throughout the entire CASSCF-calculation: 39.4 MB

------------------------------------------------------------------------------
                         ORCA PROPERTY INTEGRAL CALCULATIONS
------------------------------------------------------------------------------

GBWName                                   ... d3h.gbw
Number of atoms                           ...      8
Number of basis functions                 ...     58
Max core memory                           ...   4096 MB

Dipole integrals                          ... YES
Quadrupole integrals                      ...  NO
Linear momentum integrals                 ...  NO
Angular momentum integrals                ... YES
Higher moments length integrals           ...  NO
Higher moments velocity integrals         ...  NO
Kinetic energy integrals                  ...  NO
GIAO right hand sides                     ...  NO
GIAO dipole derivative integrals          ...  NO
SOC integrals                             ...  NO
EPR diamagnetic integrals (GIAO)          ...  NO
EPR gauge integrals                       ...  NO
Field gradient integrals                  ...  NO (   0 nuclei)
Spin-dipole/Fermi contact integrals       ...  NO (   0 nuclei)
Contact density integrals                 ...  NO (   0 nuclei)
Nucleus-orbit integrals                   ...  NO (   0 nuclei)
Geometric perturbations                   ...  NO (   8 nuclei)

Choice of electric origin   ... Center of mass
Position of electric origin ... (  0.0000, -0.0000, -0.0000) 
Choice of magnetic origin   ... GIAO
Position of magnetic origin ... (  0.0000,  0.0000,  0.0000) 

Calculating integrals                     ... Electric Dipole (Length)     done (  0.0 sec)
Calculating integrals                     ... Angular Momentum  (ElOri)    done (  0.0 sec)

Property integrals calculated in   0.0 sec

Maximum memory used throughout the entire PROPINT-calculation: 4.3 MB
-------------------------------------------------------------------------------
                              ORCA-CASSCF
-------------------------------------------------------------------------------

Setting up the integral package     ... SharkInputFile = d3h.SHARKINP.tmpdone

PROPERTIES-SETTINGS:
  QDPT diagonal energies            ... CASPT2 energies 


==========================================
CASSCF UV, CD spectra and dipole moments
==========================================


=====================================================================
CASSCF (CASPT2 diagonal energies) UV, CD spectra and dipole moments
=====================================================================

--------------
CASSCF TIMINGS
--------------

Total time                       ...        0.0 sec
Sum of individual times          ...        0.0 sec ( 92.6%)

Calculation of AO operators
Calculation of MO transformed quantities
Configuration interaction steps
   CI-setup phase                ...        0.0 sec ( 92.6%)
Orbital improvement steps

Maximum memory used throughout the entire CASSCF-calculation: 26.0 MB

-------------------------   --------------------
FINAL SINGLE POINT ENERGY       -79.326090188611
-------------------------   --------------------


------------------------------------------------------------------------------
                              ORCA PROPERTY CALCULATIONS
------------------------------------------------------------------------------

GBWName                                 ... d3h.gbw
Number of atoms                         ...      8
Number of basis functions               ...     58
Max core memory                         ...   4096 MB

Electric properties:
Dipole moment                           ... YES
Quadrupole moment                       ...  NO
Static polarizability (Dipole/Dipole)   ...  NO
Static polarizability (Dipole/Quad.)    ...  NO
Static polarizability (Quad./Quad.)     ...  NO
Static polarizability (Velocity)        ...  NO
Static hyperpolarizability              ...  NO

Atomic electric properties:
Dipole moment                           ...  NO
Quadrupole moment                       ...  NO
Static polarizability                   ...  NO

Choice of electric origin               ... Center of mass
Position of electric origin             ...     0.000000    -0.000000    -0.000000

General magnetic properties:
Magnetizability                         ...  NO

EPR properties:
g-Tensor (aka g-matrix)                 ...  NO
Zero-Field splitting spin-orbit         ...  NO
Zero-field splitting spin-spin          ...  NO
Hyperfine couplings                     ...  NO (   0 nuclei)
Quadrupole couplings                    ...  NO (   0 nuclei)
Contact density                         ...  NO (   0 nuclei)

NMR properties:
Chemical shifts                         ...  NO (   0 nuclei)
Spin-rotation constants                 ...  NO (   0 nuclei)
Spin-spin couplings                     ...  NO (   0 nuclei,    0 pairs)

Choice of magnetic origin               ... GIAO
Position of magnetic origin             ...     0.000000     0.000000     0.000000

Properties with geometric perturbations:
SCF Hessian                             ...  NO
IR spectrum                             ...  NO
VCD spectrum                            ...  NO
X-ray spectroscopy properties:
SCF XES/XAS/RIXS spectra                ...  NO

SCF SOC stabilization energy            ...  NO
Diagonal Born-Oppenheimer correction    ...  NO

-------------
DIPOLE MOMENT
-------------

Method             : CASSCF/ALL STATES AVERAGE
Type of density    : Electron Density
Level              : Unrelaxed density
State              :  -1
Multiplicity       :  -1
Irrep              :   0
Energy             :   -79.0577401231445265 Eh
Basis              : AO
                                X                 Y                 Z
Electronic contribution:     -0.000021054       0.000000000      -0.000000000
Nuclear contribution   :      0.000000000       0.000000000       0.000000000
                        -----------------------------------------
Total Dipole Moment    :     -0.000021054       0.000000000      -0.000000000
                        -----------------------------------------
Magnitude (a.u.)       :      0.000021054
Magnitude (Debye)      :      0.000053516



--------------------
Rotational spectrum 
--------------------
 
Rotational constants in cm-1:             2.378825             0.108220             0.108219 
Rotational constants in MHz :         71315.383142          3244.343288          3244.331874 

Dipole components along the rotational axes: 
x,y,z [a.u.] :    -0.000000     0.000021    -0.000000 
x,y,z [Debye]:    -0.000000     0.000054    -0.000000 

 

Dipole moment calculation done in   0.0 sec 

Maximum memory used throughout the entire PROP-calculation: 2.0 MB

--------------------------------
SUGGESTED CITATIONS FOR THIS RUN
--------------------------------

Below you find a list of papers that are relevant to this ORCA run
We neither can nor want to force you to cite these papers, but we appreciate if you do
You receive ORCA, which is the product of decades of hard work by many enthusiastic individuals, for free
The only thing we kindly ask in return is that you cite our papers,
We deeply appreciate it, if you show your appreciation for ORCA by not just citing the generic ORCA reference.

Please note that relegating all ORCA citations to the supporting information does *not* help us.
SI sections are not indexed - citations you put there will not count into any citation statistics
But we need these citations in order to attract the funding resources that allow us to do what we are doing

Therefore, if you are a happy ORCA user, please consider citing a few of the papers listed below in the main body of your paper

In addition to the list printed below, the program has created the file d3h.bibtex that contains the list in bibtex format
You can import this file easily into all common literature databanks and citation aid programs


List of essential papers. We consider these as the minimum necessary citations

  1. Neese, F.
     Software update: the ORCA program system, version 6.0
     WIRES Comput. Molec. Sci. 2025 15(1), e70019
     doi.org/10.1002/wcms.7019

List of papers to cite with high priority. The work reported in these papers was absolutely
necessary for this run to complete.
Our perspective: the developers of density functionals and basis sets usually get cited in chemistry papers
Good! But without the algorithms to do something with them, the functionals or basis sets would not do anything.
Hence, in our opinion, the algorithm design and method developments papers are equally worthy of getting cited

  1. Kollmar, C.; Sivalingam, K.; Helmich-Paris, B.; Angeli, C.; Neese, F.
     A perturbation-based super-CI approach for the orbital optimization of a CASSCF wave function
     J. Comput. Chem. 2019 40 , 1463-1470
     doi.org/10.1002/jcc.25801
  2. Kollmar, C.; Sivalingam, K.; Guo, Y.; Neese, F.
     An efficient implementation of the NEVPT2 and CASPT2 methods avoiding higher-order density matrices
     J. Chem. Phys. 2021 155(23), 234104
     doi.org/10.1063/5.0072129
  3. Neese, F.
     The SHARK Integral Generation and Digestion System
     J. Comp. Chem. 2022 44(3), 381
     doi.org/10.1002/jcc.26942
  4. Ugandi, M.; Roemelt, M.
     A recursive formulation of one-electron coupling coefficients for spin-adapted configuration interaction calculations featuring many unpaired electrons
     Int. J. Quantum Chem. 2023 123 , e27045
     doi.org/10.1002/qua.27045

List of suggested additional citations. These are papers that are important in the 'surrounding' of 
of this run, or papers that preceded the highly important papers. If you like your results we are grateful for a citation.

  1. Neese, F.
     The ORCA program system
     WIRES Comput. Molec. Sci. 2012 2(1), 73-78
     doi.org/10.1002/wcms.81
  2. Neese, F.
     Software update: the ORCA program system, version 4.0
     WIRES Comput. Molec. Sci. 2018 8(1), 1-6
     doi.org/10.1002/wcms.1327
  3. Kollmar, C.; Sivalingam, K.; Neese, F.
     An alternative choice of the zeroth-order Hamiltonian in CASPT2 theory
     J. Chem. Phys. 2020 152(21), 214110
     doi.org/10.1063/5.0010019
  4. Neese, F.; Wennmohs, F.; Becker, U.; Riplinger, C.
     The ORCA quantum chemistry program package
     J. Chem. Phys. 2020 152(22), 224108
     doi.org/10.1063/5.0004608
  5. Neese, F.
     Software update: The ORCA program system—Version 5.0
     WIRES Comput. Molec. Sci. 2022 12(1), e1606
     doi.org/10.1002/wcms.1606

List of optional additional citations

  1. Neese, F.
     Approximate second-order SCF convergence for spin unrestricted wavefunctions
     Chem. Phys. Lett. 2000 325(1-3), 93-98
     doi.org/10.1016/s0009-2614(00)00662-x

Timings for individual modules:

Sum of individual times          ...        1.545 sec (=   0.026 min)
Startup calculation              ...        0.170 sec (=   0.003 min)  11.0 %
SCF iterations                   ...        0.039 sec (=   0.001 min)   2.5 %
CASSCF iterations                ...        1.269 sec (=   0.021 min)  82.2 %
Property integrals               ...        0.031 sec (=   0.001 min)   2.0 %
Property calculations            ...        0.035 sec (=   0.001 min)   2.3 %
                             ****ORCA TERMINATED NORMALLY****
TOTAL RUN TIME: 0 days 0 hours 0 minutes 1 seconds 647 msec
