
                                 *****************
                                 * O   R   C   A *
                                 *****************

                                            #,                                       
                                            ###                                      
                                            ####                                     
                                            #####                                    
                                            ######                                   
                                           ########,                                 
                                     ,,################,,,,,                         
                               ,,#################################,,                 
                          ,,##########################################,,             
                       ,#########################################, ''#####,          
                    ,#############################################,,   '####,        
                  ,##################################################,,,,####,       
                ,###########''''           ''''###############################       
              ,#####''   ,,,,##########,,,,          '''####'''          '####       
            ,##' ,,,,###########################,,,                        '##       
           ' ,,###''''                  '''############,,,                           
         ,,##''                                '''############,,,,        ,,,,,,###''
      ,#''                                            '''#######################'''  
     '                                                          ''''####''''         
             ,#######,   #######,   ,#######,      ##                                
            ,#'     '#,  ##    ##  ,#'     '#,    #''#        ,####,    ,#,          
            ##       ##  ##   ,#'  ##            #'  '#       #'       ,# #          
            ##       ##  #######   ##           ,######,      #####,      #          
            '#,     ,#'  ##    ##  '#,     ,#' ,#      #,     #,   #      #          
             '#######'   ##     ##  '#######'  #'      '#     '####' #    #          



                #########################################################
                #                        -***-                          #
                #          Department of theory and spectroscopy        #
                #                                                       #
                #                      Frank Neese                      #
                #                                                       #
                #     Directorship, Architecture, Infrastructure        #
                #                    SHARK, DRIVERS                     #
                #        Core code/Algorithms in most modules           #
                #                                                       #
                #        Max Planck Institute fuer Kohlenforschung      #
                #                Kaiser Wilhelm Platz 1                 #
                #                 D-45470 Muelheim/Ruhr                 #
                #                      Germany                          #
                #                                                       #
                #                  All rights reserved                  #
                #                        -***-                          #
                #########################################################


                         Program Version 6.1.0  -  RELEASE   -
                                (GIT: $679e74b$)
                          ($2025-06-10 18:02:51 +0200$)


 With contributions from (in alphabetic order):
[Max-Planck-Institut fuer Kohlenforschung]                               
  Daniel Aravena         : Magnetic Suceptibility                        
  Michael Atanasov       : Ab Initio Ligand Field Theory (pilot matlab implementation)
  Alexander A. Auer      : GIAO ZORA, VPT2 properties, NMR spectrum      
  Ute Becker             : All parallelization in ORCA, NUMFREQ, NUMCALC 
  Giovanni Bistoni       : ED, misc. LED, open-shell LED, HFLD           
  Dmytro Bykov           : pre 5.0 version of the SCF Hessian            
  Marcos Casanova-Páez   : Triplet and SCS-CIS(D). UHF-(DLPNO)-IP/EA/STEOM-CCSD. UHF-CVS-IP/STEOM-CCSD   
  Vijay G. Chilkuri      : MRCI spin determinant printing, contributions to CSF-ICE 
  Pauline Colinet        : FMM embedding                                 
  Dipayan Datta          : RHF DLPNO-CCSD density                        
  Achintya Kumar Dutta   : EOM-CC, STEOM-CC                              
  Nicolas Foglia         : Exact transition moments, OPA infrastructure, MCD improvements    
  Dmitry Ganyushin       : Spin-Orbit,Spin-Spin,Magnetic field MRCI      
  Miquel Garcia-Rates    : C-PCM and meta-GGA Hessian, CCSD/C-PCM, Gaussian charge scheme 
  Tiago L. C. Gouveia    : GS-ROHF, GS-ROCIS                             
  Yang Guo               : DLPNO-NEVPT2, F12-NEVPT2, CIM, IAO-localization        
  Andreas Hansen         : Spin unrestricted coupled pair/coupled cluster methods 
  Ingolf Harden          : AUTO-CI MPn and infrastructure                
  Benjamin Helmich-Paris : MC-RPA, TRAH-(SCF,CASSCF), AVAS, COSX integrals, SCF dyn. polar., MC-PDFT, srDFT 
  Lee Huntington         : MR-EOM, pCC                                   
  Robert Izsak           : Overlap fitted RIJCOSX, COSX-SCS-MP3, EOM     
  Riya Kayal             : Wick's Theorem for AUTO-CI, AUTO-CI UHF-CCSDT 
  Emily Kempfer          : AUTO-CI RHF CISDT and CCSDT, approximate NEVPT4
  Christian Kollmar      : KDIIS, OOCD, Brueckner-CCSD(T), CCSD density, CASPT2, CASPT2-K, improved NEVPT2 
  Axel Koslowski         : Symmetry handling                             
  Simone Kossmann        : meta-GGA functionals, TD-DFT gradient, OOMP2, (MP2 Hessian; deprecated post 5.0) 
  Lucas Lang             : DCDCAS, Hyperfine gauge corrections, ICE-SOC+SSC
  Marvin Lechner         : AUTO-CI (C++ implementation), FIC-MRCC        
  Spencer Leger          : CASSCF response                               
  Dagmar Lenk            : GEPOL surface, SMD, ORCA-2-JSON               
  Dimitrios Liakos       : Extrapolation schemes; Compound Job, Property file
  Dimitrios Manganas     : Further ROCIS development; embedding schemes. LFT, Crystal Embedding 
  Dimitrios Pantazis     : SARC Basis sets                               
  Anastasios Papadopoulos: AUTO-CI, single reference methods and gradients 
  Taras Petrenko         : pre 6.0 DFT Hessian and TD-DFT gradient,  ECA, NRVS 
  Petra Pikulova         : Analytic Raman intensities                    
  Peter Pinski           : DLPNO-MP2, DLPNO-MP2 Gradient                 
  Shashank Vittal Rao    : ES-AILFT, MagRelax                            
  Christoph Reimann      : Effective Core Potentials                     
  Marius Retegan         : Local ZFS, SOC                                
  Christoph Riplinger    : Optimizer, TS searches, QM/MM, DLPNO-CCSD(T), (RO)-DLPNO pert. Triples 
  Michael Roemelt        : Original ROCIS implementation, recursive CI coupling coefficients
  Masaaki Saitow         : Open-shell DLPNO-CCSD energy and density      
  Barbara Sandhoefer     : DKH picture change effects                    
  Yorick L. A. Schmerwitz: GMF and freeze-and-release deltaSCF, NEB S-IDPP initial path                    
  Kantharuban Sivalingam : CASSCF convergence/infrastructure, NEVPT2, NEVPT3, NEVPT4(SD), FIC-MRCI and CEPA variants
  Bernardo de Souza      : ESD, SOC TD-DFT                               
  Georgi L. Stoychev     : AutoAux, RI-MP2 NMR, DLPNO-MP2 response, X2C  
  Van Anh Tran           : RI-MP2 g-tensors                              
  Willem Van den Heuvel  : Paramagnetic NMR                              
  Zikuan Wang            : NOTCH, Electric field optimization            
  Frank Wennmohs         : Technical directorship and infrastructure     
  Hang Xu                : AUTO-CI-Response properties                   
                                                                         
[FACCTs GmbH]                                                            
  Markus Bursch, Nicolas Foglia, Miquel Garcia-Rates, Ingolf Harden, Hagen Neugebauer, Anastasios Papadopoulos, 
  Christoph Riplinger, Bernardo de Souza, Georgi L. Stoychev                                                    
                                                                 
  APM, various basis sets, CI-OPT, improved COSX, DLPNO-Multilevel,           
  DOCKER, DRACO, updates on ESD, Fragmentator, GOAT, IRC, LR-CPCM, L-BFGS, MBIS, meta-GGA TD-DFT gradient, ML-optimized integration grids, 
  MM, NACMEs, nearIR, NEB, NEB-TS, NL-DFT gradient (VV10), 2- and 3-layer-ONIOM, interface openCOSMO-RS, QMMM,   
  Crystal-QMMM, RESP, rigid body optimization, SF, symmetry and pop. for TD-DFT, various functionals, SOLVATOR                                   
                                                                         
[Other institutions]                                                     
  V. Asgeirsson          : NEB                                           
  Christoph Bannwarth    : sTDA-DFT, sTD-DFT, PBEh-3c, B97-3c, D3        
  Giovanni Bistoni       : ETS/NOCV, ADLD/ADEX, COVALED                  
  Martin Brehm           : Molecular dynamics                            
  Ronald Cardenas        : ETS/NOCV                                      
  Martina Colucci        : COVALED                                       
  Sebastian Ehlert       : rSCAN, r2SCAN, r2SCAN-3c, D4, dhf basis sets  
  Marvin Friede          : D4 for Fr, Ra, Ac-Lr                          
  Lars Goerigk           : TD-DFT with DH, B97 family of functionals     
  Stefan Grimme          : VdW corrections, initial TS optimization, DFT functionals, gCP, sTDA/sTD-DF 
  Waldemar Hujo          : DFT-NL                                        
  H. Jonsson             : NEB                                           
  Holger Kruse           : gCP                                           
  Marcel Mueller         : wB97X-3c, vDZP basis set                      
  Hagen Neugebauer       : wr2SCAN, Native XTB                           
  Gianluca Regni         : ADLD/ADEX                                     
  Tobias Risthaus        : pre 6.0 range-separated hybrid DFT and stability analysis
  Lukas Wittmann         : regularized MP2, r2SCAN double-hybrids, wr2SCAN        
                                                                         
We gratefully acknowledge several colleagues who have allowed us to      
interface, adapt or use parts of their codes:                            
  Ed Valeev, F. Pavosevic, A. Kumar             : LibInt (2-el integral package), F12 methods 
  Garnet Chan, S. Sharma, J. Yang, R. Olivares  : DMRG                   
  Ulf Ekstrom                                   : XCFun DFT Library      
  Mihaly Kallay                                 : mrcc  (arbitrary order and MRCC methods)
  Frank Weinhold                                : gennbo (NPA and NBO analysis)           
  Simon Mueller                                 : openCOSMO-RS                            
  Christopher J. Cramer and Donald G. Truhlar   : smd solvation model                     
  S Lehtola, MJT Oliveira, MAL Marques          : LibXC Library                           
  Liviu Ungur et al                             : ANISO software                          


 Your calculation uses the libint2 library for the computation of 2-el integrals
 For citations please refer to: http://libint.valeyev.net

 Your ORCA version has been built with support for libXC version: 7.0.0
 For citations please refer to: https://libxc.gitlab.io

 This ORCA versions uses:
   CBLAS   interface :  Fast vector & matrix operations
   LAPACKE interface :  Fast linear algebra routines
   SCALAPACK package :  Parallel linear algebra routines
   Shared memory     :  Shared parallel matrices
   BLAS/LAPACK       :  OpenBLAS 0.3.29  USE64BITINT DYNAMIC_ARCH NO_AFFINITY SkylakeX SINGLE_THREADED
        Core in use  :  SkylakeX
   Copyright (c) 2011-2014, The OpenBLAS Project


  ***********************************
  * Starting time: Wed Dec 10 17:49:00 2025
  * Host name:     Jhonnytest
  * Process ID:    32579
  * Working dir.:  /home/jhonapontee/Group-theory/Proyecto/D3h/CASPT2
  ***********************************

================================================================================

----- Orbital basis set information -----
Your calculation utilizes the basis: def2-SVP
   F. Weigend and R. Ahlrichs, Phys. Chem. Chem. Phys. 7, 3297 (2005).

================================================================================
                                        WARNINGS
                       Please study these warnings very carefully!
================================================================================


WARNING: CASSCF multiplicity blocks not in descending order!
       : This is important for any CASSCF property run ...
 ===>  : Re-ordering the multiplicity blocks, nroots, irreps and alike!

IMPORTANT NOTE: CASSCF must signal convergence for a subsequent CASPT2/NEVPT2! 
                Set maxiter=1 to run CASPT2/NEVPT2 with arbitrary orbitals.


================================================================================
                                       INPUT FILE
================================================================================
NAME = d3h.inp
|  1> ! def2-SVP TightSCF
|  2> ! CASSCF
|  3> ! MORead
|  4> ! LargePrint   
|  5> %moinp "d3h-triplete.gbw"
|  6> 
|  7> %casscf
|  8>   nel 2
|  9>   norb 2
| 10>   mult 1,3
| 11>   nroots 1,1
| 12>   # OrbPrint borrado porque ya no existe ahí
| 13>   PTMethod FIC_CASPT2
| 14> end
| 15> 
| 16> * xyz 0 3
| 17> C   0.00000   0.00000  -1.75000
| 18> H   1.08250   0.00000  -1.75000
| 19> H  -0.54125   0.93740  -1.75000
| 20> H  -0.54125  -0.93740  -1.75000
| 21> C   0.00000   0.00000   1.75000
| 22> H   1.08250   0.00000   1.75000
| 23> H  -0.54125   0.93740   1.75000
| 24> H  -0.54125  -0.93740   1.75000
| 25> *
| 26> 
| 27>                          ****END OF INPUT****
================================================================================

                       ****************************
                       * Single Point Calculation *
                       ****************************

---------------------------------
CARTESIAN COORDINATES (ANGSTROEM)
---------------------------------
  C      0.000000    0.000000   -1.750000
  H      1.082500    0.000000   -1.750000
  H     -0.541250    0.937400   -1.750000
  H     -0.541250   -0.937400   -1.750000
  C      0.000000    0.000000    1.750000
  H      1.082500    0.000000    1.750000
  H     -0.541250    0.937400    1.750000
  H     -0.541250   -0.937400    1.750000

----------------------------
CARTESIAN COORDINATES (A.U.)
----------------------------
  NO LB      ZA    FRAG     MASS         X           Y           Z
   0 C     6.0000    0    12.011    0.000000    0.000000   -3.307021
   1 H     1.0000    0     1.008    2.045629    0.000000   -3.307021
   2 H     1.0000    0     1.008   -1.022814    1.771429   -3.307021
   3 H     1.0000    0     1.008   -1.022814   -1.771429   -3.307021
   4 C     6.0000    0    12.011    0.000000    0.000000    3.307021
   5 H     1.0000    0     1.008    2.045629    0.000000    3.307021
   6 H     1.0000    0     1.008   -1.022814    1.771429    3.307021
   7 H     1.0000    0     1.008   -1.022814   -1.771429    3.307021

--------------------------------
INTERNAL COORDINATES (ANGSTROEM)
--------------------------------
 C      0   0   0     0.000000000000     0.00000000     0.00000000
 H      1   0   0     1.082500000000     0.00000000     0.00000000
 H      1   2   0     1.082437214115   120.00191878     0.00000000
 H      1   2   3     1.082437214115   120.00191878   180.00000000
 C      1   2   3     3.500000000000    90.00000000   270.00000000
 H      5   1   2     1.082500000000    90.00000000     0.00000000
 H      5   1   2     1.082437214115    90.00000000   120.00191878
 H      5   1   2     1.082437214115    90.00000000   239.99808122

---------------------------
INTERNAL COORDINATES (A.U.)
---------------------------
 C      0   0   0     0.000000000000     0.00000000     0.00000000
 H      1   0   0     2.045628539970     0.00000000     0.00000000
 H      1   2   0     2.045509891841   120.00191878     0.00000000
 H      1   2   3     2.045509891841   120.00191878   180.00000000
 C      1   2   3     6.614041468724    90.00000000   270.00000000
 H      5   1   2     2.045628539970    90.00000000     0.00000000
 H      5   1   2     2.045509891841    90.00000000   120.00191878
 H      5   1   2     2.045509891841    90.00000000   239.99808122

---------------------
BASIS SET INFORMATION
---------------------
There are 2 groups of distinct atoms

 Group   1 Type C   : 7s4p1d contracted to 3s2p1d pattern {511/31/1}
 Group   2 Type H   : 4s1p contracted to 2s1p pattern {31/1}

Atom   0C    basis set group =>   1
Atom   1H    basis set group =>   2
Atom   2H    basis set group =>   2
Atom   3H    basis set group =>   2
Atom   4C    basis set group =>   1
Atom   5H    basis set group =>   2
Atom   6H    basis set group =>   2
Atom   7H    basis set group =>   2

-------------------------
BASIS SET IN INPUT FORMAT
-------------------------

 # Basis set for element : H 
 NewGTO H 
 S 3 
   1      13.0107010000      0.0334854848
   2       1.9622572000      0.2347218709
   3       0.4445379600      0.8137702853
 S 1 
   1       0.1219496200      1.0000000000
 P 1 
   1       0.8000000000      1.0000000000
  end;

 # Basis set for element : C 
 NewGTO C 
 S 5 
   1    1238.4016938000      0.0055173650
   2     186.2900499200      0.0410888285
   3      42.2511763460      0.1822538213
   4      11.6765579320      0.4682845944
   5       3.5930506482      0.4457581734
 S 1 
   1       0.4024514736      1.0000000000
 S 1 
   1       0.1309018267      1.0000000000
 P 3 
   1       9.4680970621      0.0568883320
   2       2.0103545142      0.3129405934
   3       0.5477100471      0.7606501651
 P 1 
   1       0.1526861379      1.0000000000
 D 1 
   1       0.8000000000      1.0000000000
  end;

------------------------------------------------------------------------------
                             ORCA STARTUP CALCULATIONS
------------------------------------------------------------------------------
------------------------------------------------------------------------------
                   ___                                                        
                  /   \      - P O W E R E D   B Y -                         
                 /     \                                                     
                 |  |  |   _    _      __       _____    __    __             
                 |  |  |  | |  | |    /  \     |  _  \  |  |  /  |          
                  \  \/   | |  | |   /    \    | | | |  |  | /  /          
                 / \  \   | |__| |  /  /\  \   | |_| |  |  |/  /          
                |  |  |   |  __  | /  /__\  \  |    /   |      \           
                |  |  |   | |  | | |   __   |  |    \   |  |\   \          
                \     /   | |  | | |  |  |  |  | |\  \  |  | \   \       
                 \___/    |_|  |_| |__|  |__|  |_| \__\ |__|  \__/        
                                                                              
                      - O R C A' S   B I G   F R I E N D -                    
                                      &                                       
                       - I N T E G R A L  F E E D E R -                       
                                                                              
 v1 FN, 2020, v2 2021, v3 2022-2024                                           
------------------------------------------------------------------------------


----------------------
SHARK INTEGRAL PACKAGE
----------------------

Number of atoms                             ...      8
Number of basis functions                   ...     58
Number of shells                            ...     30
Maximum angular momentum                    ...      2
Integral batch strategy                     ... SHARK/LIBINT Hybrid
RI-J (if used) integral strategy            ... SPLIT-RIJ (Revised 2003 algorithm where possible)
Printlevel                                  ...      1
Contraction scheme used                     ... SEGMENTED contraction
Prescreening option                         ... SCHWARTZ
   Thresh                                   ... 2.500e-11
   Tcut                                     ... 2.500e-12
   Tpresel                                  ... 2.500e-12 
Coulomb Range Separation                    ... NOT USED
Exchange Range Separation                   ... NOT USED
Multipole approximations                    ... NOT USED
Finite Nucleus Model                        ... NOT USED
CABS basis                                  ... NOT available
Auxiliary Coulomb fitting basis             ... NOT available
Auxiliary J/K fitting basis                 ... NOT available
Auxiliary Correlation fitting basis         ... NOT available
Auxiliary 'external' fitting basis          ... NOT available

Checking pre-screening integrals            ... done (  0.0 sec) Dimension = 30
   => SHARK Basis and OBASIS are compatible. Storing Pre-screening
Shell pair information
Shell pair cut-off parameter TPreSel        ...   2.5e-12
Total number of shell pairs                 ...       465
Shell pairs after pre-screening             ...       458
Total number of primitive shell pairs       ...      1529
Primitive shell pairs kept                  ...      1254
          la=0 lb=0:    170 shell pairs
          la=1 lb=0:    174 shell pairs
          la=1 lb=1:     55 shell pairs
          la=2 lb=0:     36 shell pairs
          la=2 lb=1:     20 shell pairs
          la=2 lb=2:      3 shell pairs

Checking whether 4 symmetric matrices of dimension 58 fit in memory
:Max Core in MB      =   4096.00
 MB in use           =      1.76
 MB left             =   4094.24
 MB needed           =      0.05
 Data fit in memory  = YES
Calculating Nuclear repulsion               ... done (  0.0 sec) ENN=     31.188823454856 Eh

Diagonalization of the overlap matrix:
Smallest eigenvalue                        ... 1.896e-02
Time for diagonalization                   ...    0.000 sec
Threshold for overlap eigenvalues          ... 1.000e-07
Number of eigenvalues below threshold      ... 0
Time for construction of square roots      ...    0.000 sec
Total time needed                          ...    0.001 sec

-------------------
DFT GRID GENERATION
-------------------

General Integration Accuracy     IntAcc      ... 4.388
Radial Grid Type                 RadialGrid  ... OptM3 with GC (2021)
Angular Grid (max. ang.)         AngularGrid ... 4 (Lebedev-302)
Angular grid pruning method      GridPruning ... 4 (adaptive)
Weight generation scheme         WeightScheme... mBecke (2022)
Basis function cutoff            BFCut       ... 1.0000e-11
Integration weight cutoff        WCut        ... 1.0000e-14
Partially contracted basis set               ... off
Rotationally invariant grid construction     ... off
Angular grids for H and He will be reduced by one unit

Total number of grid points                  ...    31956
Total number of batches                      ...      504
Average number of points per batch           ...       63
Average number of grid points per atom       ...     3994
Grids setup in   0.1 sec
Initializing property integral containers    ... done (  0.0 sec)

SHARK setup successfully completed in   0.1 seconds

Maximum memory used throughout the entire STARTUP-calculation: 11.4 MB
-------------------------------------------------------------------------------
                                 ORCA GUESS
                   Start orbitals & Density for SCF / CASSCF
-------------------------------------------------------------------------------

------------
SCF SETTINGS
------------
Hamiltonian:
 Ab initio Hamiltonian  Method          .... Hartree-Fock(GTOs)


General Settings:
 Integral files         IntName         .... d3h
 Hartree-Fock type      HFTyp           .... CASSCF
 Total Charge           Charge          ....    0
 Multiplicity           Mult            ....    3
 Number of Electrons    NEL             ....   18
 Basis Dimension        Dim             ....   58
 Nuclear Repulsion      ENuc            ....     31.1888234549 Eh

---------------------
INITIAL GUESS: MOREAD
---------------------
Guess MOs are being read from file: d3h-triplete.gbw
Input Geometry matches current geometry (good)
Input basis set matches current basis set (good)
Occupation numbers will be reassigned to an Aufbau configuration
MOs were renormalized
Gram-Schmidt orthogonalization of all MOs with pivot on actives
                      ------------------
                      INITIAL GUESS DONE (   0.0 sec)
                      ------------------
----------------------
INITIAL GUESS ORBITALS
----------------------
                      0         1         2         3         4         5   
                 -10.19065 -10.19057  -0.67264  -0.66794  -0.41483  -0.41481
                   2.00000   2.00000   2.00000   2.00000   2.00000   2.00000
                  --------  --------  --------  --------  --------  --------
  0C   1s        -0.698515  0.698660  0.183382 -0.185290  0.000003  0.000000
  0C   2s        -0.036117  0.034413 -0.359950  0.367059 -0.000024 -0.000000
  0C   3s         0.026449 -0.021010 -0.148467  0.142348  0.000039 -0.000000
  0C   1pz       -0.000418 -0.000157 -0.001755 -0.001703  0.000004  0.000000
  0C   1px        0.000000 -0.000000 -0.000001  0.000003 -0.319782 -0.000000
  0C   1py        0.000000  0.000000  0.000000  0.000000  0.000000  0.319785
  0C   2pz        0.001355  0.000537 -0.002609 -0.005229  0.000001  0.000000
  0C   2px       -0.000014  0.000011  0.000034 -0.000048 -0.115303 -0.000000
  0C   2py        0.000000  0.000000  0.000000  0.000000  0.000000  0.115238
  0C   1dz2       0.001666 -0.001845 -0.004224  0.004003 -0.000004 -0.000000
  0C   1dxz      -0.000000  0.000000  0.000001 -0.000001 -0.000133 -0.000000
  0C   1dyz       0.000000  0.000000  0.000000  0.000000  0.000000  0.000134
  0C   1dx2y2    -0.000003  0.000003  0.000007 -0.000007 -0.013142 -0.000000
  0C   1dxy       0.000000  0.000000  0.000000  0.000000  0.000000 -0.013140
  1H   1s         0.002876 -0.003406 -0.132624  0.135133 -0.257919 -0.000000
  1H   2s        -0.005971  0.004853 -0.018285  0.019087 -0.105164 -0.000000
  1H   1pz       -0.000205 -0.000081 -0.000003  0.000124 -0.000218  0.000000
  1H   1px       -0.002081  0.002167  0.016019 -0.016149  0.008498  0.000000
  1H   1py        0.000000  0.000000  0.000000  0.000000  0.000000  0.008770
  2H   1s         0.002870 -0.003400 -0.132605  0.135113  0.128950  0.223371
  2H   2s        -0.005985  0.004862 -0.018261  0.019037  0.052565  0.091119
  2H   1pz       -0.000205 -0.000081 -0.000003  0.000125  0.000109  0.000189
  2H   1px        0.001040 -0.001083 -0.008008  0.008073 -0.004450  0.007479
  2H   1py       -0.001800  0.001874  0.013868 -0.013979 -0.007475 -0.004183
  3H   1s         0.002870 -0.003400 -0.132605  0.135113  0.128950 -0.223371
  3H   2s        -0.005985  0.004862 -0.018261  0.019037  0.052565 -0.091119
  3H   1pz       -0.000205 -0.000081 -0.000003  0.000125  0.000109 -0.000189
  3H   1px        0.001040 -0.001083 -0.008008  0.008073 -0.004450 -0.007479
  3H   1py        0.001800 -0.001874 -0.013868  0.013979  0.007475 -0.004183
  4C   1s         0.698515  0.698660  0.183382  0.185290  0.000003  0.000000
  4C   2s         0.036117  0.034413 -0.359950 -0.367059 -0.000024 -0.000000
  4C   3s        -0.026449 -0.021010 -0.148467 -0.142348  0.000039 -0.000000
  4C   1pz       -0.000418  0.000157  0.001755 -0.001703 -0.000004  0.000000
  4C   1px       -0.000000 -0.000000 -0.000001 -0.000003 -0.319782 -0.000000
  4C   1py        0.000000  0.000000  0.000000  0.000000  0.000000  0.319785
  4C   2pz        0.001355 -0.000537  0.002609 -0.005229 -0.000001  0.000000
  4C   2px        0.000014  0.000011  0.000034  0.000048 -0.115303 -0.000000
  4C   2py        0.000000  0.000000  0.000000  0.000000  0.000000  0.115238
  4C   1dz2      -0.001666 -0.001845 -0.004224 -0.004003 -0.000004 -0.000000
  4C   1dxz      -0.000000 -0.000000 -0.000001 -0.000001  0.000133  0.000000
  4C   1dyz       0.000000  0.000000  0.000000  0.000000  0.000000 -0.000134
  4C   1dx2y2     0.000003  0.000003  0.000007  0.000007 -0.013142 -0.000000
  4C   1dxy       0.000000  0.000000  0.000000  0.000000  0.000000 -0.013140
  5H   1s        -0.002876 -0.003406 -0.132624 -0.135133 -0.257919 -0.000000
  5H   2s         0.005971  0.004853 -0.018285 -0.019087 -0.105164 -0.000000
  5H   1pz       -0.000205  0.000081  0.000003  0.000124  0.000218  0.000000
  5H   1px        0.002081  0.002167  0.016019  0.016149  0.008498  0.000000
  5H   1py        0.000000  0.000000  0.000000  0.000000  0.000000  0.008770
  6H   1s        -0.002870 -0.003400 -0.132605 -0.135113  0.128950  0.223371
  6H   2s         0.005985  0.004862 -0.018261 -0.019037  0.052565  0.091119
  6H   1pz       -0.000205  0.000081  0.000003  0.000125 -0.000109 -0.000189
  6H   1px       -0.001040 -0.001083 -0.008008 -0.008073 -0.004450  0.007479
  6H   1py        0.001800  0.001874  0.013868  0.013979 -0.007475 -0.004183
  7H   1s        -0.002870 -0.003400 -0.132605 -0.135113  0.128950 -0.223371
  7H   2s         0.005985  0.004862 -0.018261 -0.019037  0.052565 -0.091119
  7H   1pz       -0.000205  0.000081  0.000003  0.000125 -0.000109  0.000189
  7H   1px       -0.001040 -0.001083 -0.008008 -0.008073 -0.004450 -0.007479
  7H   1py       -0.001800 -0.001874 -0.013868 -0.013979  0.007475 -0.004183
                      6         7         8         9        10        11   
                  -0.41144  -0.41142  -0.24105  -0.20884   0.06767   0.09934
                   2.00000   2.00000   2.00000   0.00000   0.00000   0.00000
                  --------  --------  --------  --------  --------  --------
  0C   1s         0.000003  0.000000 -0.006470 -0.008413 -0.110782 -0.113111
  0C   2s        -0.000021 -0.000000  0.015807  0.026079  0.225595  0.218477
  0C   3s         0.000027 -0.000000  0.017408  0.007076  1.664835  1.808988
  0C   1pz        0.000001 -0.000000 -0.418352  0.455312  0.030401 -0.041797
  0C   1px       -0.323280  0.000000 -0.000006  0.000000 -0.000010 -0.000007
  0C   1py       -0.000000 -0.323287  0.000000  0.000000 -0.000000  0.000000
  0C   2pz       -0.000005 -0.000000 -0.349278  0.364871 -0.001102  0.012660
  0C   2px       -0.117546  0.000000  0.000014 -0.000005 -0.000058 -0.000101
  0C   2py       -0.000000 -0.117480  0.000000  0.000000 -0.000000  0.000000
  0C   1dz2      -0.000004 -0.000000 -0.001971 -0.002516  0.006637  0.011198
  0C   1dxz       0.000243 -0.000000 -0.000008  0.000009 -0.000000 -0.000002
  0C   1dyz      -0.000000  0.000243  0.000000  0.000000 -0.000000 -0.000000
  0C   1dx2y2    -0.013302  0.000000  0.000000 -0.000000 -0.000006 -0.000006
  0C   1dxy       0.000000  0.013299  0.000000  0.000000  0.000000 -0.000000
  1H   1s        -0.261110 -0.000000  0.007061  0.010534 -0.036897 -0.064821
  1H   2s        -0.100077  0.000000 -0.009165 -0.010920 -0.825125 -0.878682
  1H   1pz        0.000331 -0.000000 -0.013003  0.013717  0.000501 -0.001240
  1H   1px        0.008414  0.000000 -0.000096 -0.000101 -0.004631 -0.007166
  1H   1py       -0.000000 -0.008817  0.000000  0.000000 -0.000000  0.000000
  2H   1s         0.130547 -0.226140  0.007073  0.010531 -0.036916 -0.064851
  2H   2s         0.050028 -0.086707 -0.009156 -0.010918 -0.825230 -0.878840
  2H   1pz       -0.000165  0.000286 -0.013001  0.013715  0.000501 -0.001239
  2H   1px       -0.004506 -0.007462  0.000048  0.000050  0.002313  0.003580
  2H   1py       -0.007459  0.004108 -0.000084 -0.000087 -0.004007 -0.006201
  3H   1s         0.130547  0.226140  0.007073  0.010531 -0.036916 -0.064851
  3H   2s         0.050028  0.086707 -0.009156 -0.010918 -0.825230 -0.878840
  3H   1pz       -0.000165 -0.000286 -0.013001  0.013715  0.000501 -0.001239
  3H   1px       -0.004506  0.007462  0.000048  0.000050  0.002313  0.003580
  3H   1py        0.007459  0.004108  0.000084  0.000087  0.004007  0.006201
  4C   1s        -0.000003 -0.000000 -0.006470  0.008413 -0.110782  0.113111
  4C   2s         0.000021  0.000000  0.015807 -0.026079  0.225595 -0.218477
  4C   3s        -0.000027  0.000000  0.017408 -0.007076  1.664835 -1.808988
  4C   1pz        0.000001 -0.000000  0.418352  0.455312 -0.030401 -0.041797
  4C   1px        0.323280 -0.000000 -0.000006 -0.000000 -0.000010  0.000007
  4C   1py       -0.000000  0.323287  0.000000  0.000000 -0.000000 -0.000000
  4C   2pz       -0.000005 -0.000000  0.349278  0.364871  0.001102  0.012660
  4C   2px        0.117546 -0.000000  0.000014  0.000005 -0.000058  0.000101
  4C   2py       -0.000000  0.117480  0.000000  0.000000 -0.000000 -0.000000
  4C   1dz2       0.000004  0.000000 -0.001971  0.002516  0.006637 -0.011198
  4C   1dxz       0.000243 -0.000000  0.000008  0.000009  0.000000 -0.000002
  4C   1dyz       0.000000  0.000243  0.000000  0.000000  0.000000 -0.000000
  4C   1dx2y2     0.013302 -0.000000  0.000000  0.000000 -0.000006  0.000006
  4C   1dxy       0.000000 -0.013299  0.000000  0.000000  0.000000  0.000000
  5H   1s         0.261110  0.000000  0.007061 -0.010534 -0.036897  0.064821
  5H   2s         0.100077  0.000000 -0.009165  0.010920 -0.825125  0.878682
  5H   1pz        0.000331 -0.000000  0.013003  0.013717 -0.000501 -0.001240
  5H   1px       -0.008414 -0.000000 -0.000096  0.000101 -0.004631  0.007166
  5H   1py       -0.000000  0.008817  0.000000  0.000000 -0.000000 -0.000000
  6H   1s        -0.130547  0.226140  0.007073 -0.010531 -0.036916  0.064851
  6H   2s        -0.050028  0.086707 -0.009156  0.010918 -0.825230  0.878840
  6H   1pz       -0.000165  0.000286  0.013001  0.013715 -0.000501 -0.001239
  6H   1px        0.004506  0.007462  0.000048 -0.000050  0.002313 -0.003580
  6H   1py        0.007459 -0.004108 -0.000084  0.000087 -0.004007  0.006201
  7H   1s        -0.130547 -0.226140  0.007073 -0.010531 -0.036916  0.064851
  7H   2s        -0.050028 -0.086707 -0.009156  0.010918 -0.825230  0.878840
  7H   1pz       -0.000165 -0.000286  0.013001  0.013715 -0.000501 -0.001239
  7H   1px        0.004506 -0.007462  0.000048 -0.000050  0.002313 -0.003580
  7H   1py       -0.007459 -0.004108  0.000084 -0.000087  0.004007 -0.006201
                     12        13        14        15        16        17   
                   0.13329   0.13329   0.16397   0.16398   0.38119   0.42431
                   0.00000   0.00000   0.00000   0.00000   0.00000   0.00000
                  --------  --------  --------  --------  --------  --------
  0C   1s        -0.000003 -0.000000  0.000003 -0.000000  0.048339  0.000000
  0C   2s         0.000003  0.000000  0.000019  0.000000 -0.527333  0.000000
  0C   3s        -0.000089  0.000000  0.000012  0.000000  1.621711 -0.000000
  0C   1pz        0.000002 -0.000000  0.000008 -0.000000 -0.429568  0.000000
  0C   1px        0.262329 -0.000000 -0.271337  0.000000 -0.000043  0.000000
  0C   1py       -0.000000 -0.262327 -0.000000 -0.271338  0.000000 -0.202069
  0C   2pz       -0.000003  0.000000 -0.000012  0.000000  0.366298 -0.000000
  0C   2px        0.879405 -0.000000 -0.943315  0.000000  0.000087  0.000000
  0C   2py       -0.000000 -0.879464 -0.000000 -0.943335  0.000000  1.070076
  0C   1dz2       0.000003  0.000000 -0.000003  0.000000  0.055425 -0.000000
  0C   1dxz      -0.001133  0.000000 -0.001163  0.000000 -0.000016 -0.000000
  0C   1dyz       0.000000  0.001134  0.000000 -0.001163  0.000000  0.003052
  0C   1dx2y2    -0.004419  0.000000  0.009491 -0.000000  0.000003 -0.000000
  0C   1dxy       0.000000 -0.004423 -0.000000 -0.009495 -0.000000  0.058919
  1H   1s        -0.036763 -0.000000  0.077048 -0.000000 -0.310407  0.000000
  1H   2s        -1.367670  0.000000  1.447015 -0.000000 -0.290021 -0.000000
  1H   1pz       -0.003023  0.000000 -0.003465  0.000000 -0.017159  0.000000
  1H   1px       -0.001464 -0.000000  0.005359 -0.000000 -0.010158  0.000000
  1H   1py       -0.000000 -0.006966 -0.000000 -0.010156  0.000000  0.050770
  2H   1s         0.018388  0.031869 -0.038526  0.066741 -0.310328 -0.503134
  2H   2s         0.683872  1.184515 -0.723514  1.253204 -0.290044 -0.178498
  2H   1pz        0.001511  0.002618  0.001733 -0.003001 -0.017155  0.003539
  2H   1px        0.004857 -0.003649 -0.006276 -0.006718  0.005082  0.020347
  2H   1py        0.003648 -0.000643 -0.006716  0.001481 -0.008798  0.015527
  3H   1s         0.018388 -0.031869 -0.038526 -0.066741 -0.310328  0.503134
  3H   2s         0.683872 -1.184515 -0.723514 -1.253204 -0.290044  0.178498
  3H   1pz        0.001511 -0.002618  0.001733  0.003001 -0.017155 -0.003539
  3H   1px        0.004857  0.003649 -0.006276  0.006718  0.005082 -0.020347
  3H   1py       -0.003648 -0.000643  0.006716  0.001481  0.008798  0.015527
  4C   1s        -0.000003  0.000000 -0.000003  0.000000  0.048339  0.000000
  4C   2s         0.000003 -0.000000 -0.000019 -0.000000 -0.527333  0.000000
  4C   3s        -0.000089 -0.000000 -0.000012 -0.000000  1.621711 -0.000000
  4C   1pz       -0.000002 -0.000000  0.000008 -0.000000  0.429568 -0.000000
  4C   1px        0.262329 -0.000000  0.271337 -0.000000 -0.000043  0.000000
  4C   1py        0.000000 -0.262327 -0.000000  0.271338  0.000000 -0.202069
  4C   2pz        0.000003 -0.000000 -0.000012  0.000000 -0.366298  0.000000
  4C   2px        0.879405 -0.000000  0.943315 -0.000000  0.000087  0.000000
  4C   2py        0.000000 -0.879464 -0.000000  0.943335 -0.000000  1.070076
  4C   1dz2       0.000003 -0.000000  0.000003 -0.000000  0.055425 -0.000000
  4C   1dxz       0.001133 -0.000000 -0.001163  0.000000  0.000016  0.000000
  4C   1dyz       0.000000 -0.001134 -0.000000 -0.001163  0.000000 -0.003052
  4C   1dx2y2    -0.004419  0.000000 -0.009491  0.000000  0.000003 -0.000000
  4C   1dxy      -0.000000 -0.004423 -0.000000  0.009495 -0.000000  0.058919
  5H   1s        -0.036763  0.000000 -0.077048  0.000000 -0.310407  0.000000
  5H   2s        -1.367670  0.000000 -1.447015  0.000000 -0.290021 -0.000000
  5H   1pz        0.003023 -0.000000 -0.003465 -0.000000  0.017159 -0.000000
  5H   1px       -0.001464  0.000000 -0.005359  0.000000 -0.010158  0.000000
  5H   1py        0.000000 -0.006966 -0.000000  0.010156 -0.000000  0.050770
  6H   1s         0.018388  0.031869  0.038526 -0.066741 -0.310328 -0.503134
  6H   2s         0.683872  1.184515  0.723514 -1.253204 -0.290044 -0.178498
  6H   1pz       -0.001511 -0.002618  0.001733 -0.003001  0.017155 -0.003539
  6H   1px        0.004857 -0.003649  0.006276  0.006718  0.005082  0.020347
  6H   1py        0.003648 -0.000643  0.006716 -0.001481 -0.008798  0.015527
  7H   1s         0.018388 -0.031869  0.038526  0.066741 -0.310328  0.503134
  7H   2s         0.683872 -1.184515  0.723514  1.253204 -0.290044  0.178498
  7H   1pz       -0.001511  0.002618  0.001733  0.003001  0.017155  0.003539
  7H   1px        0.004857  0.003649  0.006276 -0.006718  0.005082 -0.020347
  7H   1py       -0.003648 -0.000643 -0.006716 -0.001481  0.008798  0.015527
                     18        19        20        21        22        23   
                   0.42433   0.47276   0.47281   0.47351   0.48025   0.62381
                   0.00000   0.00000   0.00000   0.00000   0.00000   0.00000
                  --------  --------  --------  --------  --------  --------
  0C   1s        -0.000045  0.000000 -0.000975  0.028316 -0.044376  0.206548
  0C   2s         0.000366 -0.000000  0.014168 -0.417757  0.480664 -1.196587
  0C   3s        -0.000741 -0.000000 -0.044458  1.319403 -1.358244  2.606402
  0C   1pz       -0.000301 -0.000000 -0.016067  0.481791 -0.549100  0.008614
  0C   1px        0.201958  0.000000  0.226576  0.007509 -0.000032 -0.000318
  0C   1py        0.000000 -0.226812  0.000000  0.000000 -0.000000  0.000000
  0C   2pz        0.000302  0.000000  0.017699 -0.530951  0.575702 -0.020699
  0C   2px       -1.069994  0.000000 -1.035691 -0.034508  0.000428  0.000420
  0C   2py       -0.000000  1.036420  0.000000  0.000000 -0.000000  0.000000
  0C   1dz2       0.000004  0.000000 -0.002122  0.064148 -0.044310 -0.080087
  0C   1dxz      -0.003048  0.000000  0.003915  0.000149 -0.000020 -0.000001
  0C   1dyz      -0.000000 -0.003916 -0.000000  0.000000 -0.000000  0.000000
  0C   1dx2y2     0.058941 -0.000000  0.065434  0.002199 -0.000046  0.000084
  0C   1dxy      -0.000000  0.065441  0.000000  0.000000 -0.000000  0.000000
  1H   1s         0.581083 -0.000000  0.592686 -0.317920  0.268730  0.338566
  1H   2s         0.206181 -0.000000  0.101037 -0.164274  0.199670 -0.898456
  1H   1pz       -0.004094 -0.000000  0.004826  0.015638 -0.014651 -0.002365
  1H   1px       -0.003771 -0.000000 -0.008561 -0.018110  0.008711  0.075460
  1H   1py       -0.000000  0.061998  0.000000  0.000000 -0.000000  0.000000
  2H   1s        -0.290510 -0.503782 -0.279552 -0.347040  0.269171  0.338108
  2H   2s        -0.102855 -0.082736 -0.041926 -0.169013  0.199736 -0.897571
  2H   1pz        0.002032 -0.004627 -0.003188  0.015367 -0.014650 -0.002358
  2H   1px       -0.039023  0.022876 -0.049066  0.007272 -0.004335 -0.037714
  2H   1py       -0.020366  0.022374 -0.022374 -0.016195  0.007569  0.065247
  3H   1s        -0.290510  0.503782 -0.279552 -0.347040  0.269171  0.338108
  3H   2s        -0.102855  0.082736 -0.041926 -0.169013  0.199736 -0.897571
  3H   1pz        0.002032  0.004627 -0.003188  0.015367 -0.014650 -0.002358
  3H   1px       -0.039023 -0.022876 -0.049066  0.007272 -0.004335 -0.037714
  3H   1py        0.020366  0.022374  0.022374  0.016195 -0.007569 -0.065247
  4C   1s        -0.000045  0.000000  0.000975 -0.028316 -0.044376  0.206548
  4C   2s         0.000366 -0.000000 -0.014168  0.417757  0.480664 -1.196587
  4C   3s        -0.000741 -0.000000  0.044458 -1.319403 -1.358244  2.606402
  4C   1pz        0.000301  0.000000 -0.016067  0.481791  0.549100 -0.008614
  4C   1px        0.201958 -0.000000 -0.226576 -0.007509 -0.000032 -0.000318
  4C   1py        0.000000  0.226812  0.000000 -0.000000 -0.000000  0.000000
  4C   2pz       -0.000302 -0.000000  0.017699 -0.530951 -0.575702  0.020699
  4C   2px       -1.069994 -0.000000  1.035691  0.034508  0.000428  0.000420
  4C   2py       -0.000000 -1.036420 -0.000000 -0.000000 -0.000000  0.000000
  4C   1dz2       0.000004  0.000000  0.002122 -0.064148 -0.044310 -0.080087
  4C   1dxz       0.003048  0.000000  0.003915  0.000149  0.000020  0.000001
  4C   1dyz       0.000000 -0.003916  0.000000  0.000000  0.000000 -0.000000
  4C   1dx2y2     0.058941 -0.000000 -0.065434 -0.002199 -0.000046  0.000084
  4C   1dxy      -0.000000 -0.065441 -0.000000 -0.000000 -0.000000  0.000000
  5H   1s         0.581083 -0.000000 -0.592686  0.317920  0.268730  0.338566
  5H   2s         0.206181  0.000000 -0.101037  0.164274  0.199670 -0.898456
  5H   1pz        0.004094  0.000000  0.004826  0.015638  0.014651  0.002365
  5H   1px       -0.003771  0.000000  0.008561  0.018110  0.008711  0.075460
  5H   1py       -0.000000 -0.061998 -0.000000 -0.000000 -0.000000  0.000000
  6H   1s        -0.290510  0.503782  0.279552  0.347040  0.269171  0.338108
  6H   2s        -0.102855  0.082736  0.041926  0.169013  0.199736 -0.897571
  6H   1pz       -0.002032 -0.004627 -0.003188  0.015367  0.014650  0.002358
  6H   1px       -0.039023 -0.022876  0.049066 -0.007272 -0.004335 -0.037714
  6H   1py       -0.020366 -0.022374  0.022374  0.016195  0.007569  0.065247
  7H   1s        -0.290510 -0.503782  0.279552  0.347040  0.269171  0.338108
  7H   2s        -0.102855 -0.082736  0.041926  0.169013  0.199736 -0.897571
  7H   1pz       -0.002032  0.004627 -0.003188  0.015367  0.014650  0.002358
  7H   1px       -0.039023  0.022876  0.049066 -0.007272 -0.004335 -0.037714
  7H   1py        0.020366 -0.022374 -0.022374 -0.016195 -0.007569 -0.065247
                     24        25        26        27        28        29   
                   0.64514   0.67872   0.67875   0.70776   0.70779   0.74742
                   0.00000   0.00000   0.00000   0.00000   0.00000   0.00000
                  --------  --------  --------  --------  --------  --------
  0C   1s        -0.162913  0.000000  0.000122  0.000000  0.000041  0.150541
  0C   2s         0.896116 -0.000000 -0.000722 -0.000000 -0.000488 -1.181406
  0C   3s        -2.068339  0.000000  0.001683  0.000000  0.001221  2.970683
  0C   1pz       -0.279840 -0.000000  0.000041  0.000000 -0.000483 -0.476080
  0C   1px        0.000202 -0.000000  0.657955  0.000000 -0.655944  0.000491
  0C   1py       -0.000000 -0.657921  0.000000 -0.655902 -0.000000 -0.000000
  0C   2pz        0.353641  0.000000 -0.000051 -0.000000  0.000647  0.653009
  0C   2px       -0.000299 -0.000000 -1.108087 -0.000000  1.198898 -0.001034
  0C   2py       -0.000000  1.107906 -0.000000  1.198710  0.000000  0.000000
  0C   1dz2       0.095563 -0.000000 -0.000034 -0.000000  0.000046  0.029377
  0C   1dxz      -0.000015  0.000000  0.001673  0.000000  0.002632 -0.000025
  0C   1dyz      -0.000000 -0.001673  0.000000  0.002636  0.000000  0.000000
  0C   1dx2y2    -0.000061  0.000000 -0.104307 -0.000000  0.105800 -0.000052
  0C   1dxy       0.000000 -0.104328  0.000000 -0.105823 -0.000000  0.000000
  1H   1s        -0.407133  0.000000 -0.404198  0.000000  0.420469 -0.155105
  1H   2s         0.850231 -0.000000  1.186878 -0.000000 -1.359916 -0.677250
  1H   1pz       -0.001109 -0.000000  0.005919 -0.000000  0.007871  0.018934
  1H   1px       -0.068267  0.000000 -0.124024  0.000000  0.122096  0.024697
  1H   1py        0.000000 -0.050355  0.000000 -0.047921 -0.000000  0.000000
  2H   1s        -0.406786  0.350275  0.202340  0.364451 -0.210610 -0.154705
  2H   2s         0.849508 -1.028355 -0.594266 -1.177638  0.679756 -0.678902
  2H   1pz       -0.001100 -0.005127 -0.002961  0.006809 -0.003920  0.018953
  2H   1px        0.034126 -0.075523  0.006712 -0.073619 -0.005390 -0.012404
  2H   1py       -0.059051  0.080460  0.075556  0.079596 -0.073621  0.021516
  3H   1s        -0.406786 -0.350275  0.202340 -0.364451 -0.210610 -0.154705
  3H   2s         0.849508  1.028355 -0.594266  1.177638  0.679756 -0.678902
  3H   1pz       -0.001100  0.005127 -0.002961 -0.006809 -0.003920  0.018953
  3H   1px        0.034126  0.075523  0.006712  0.073619 -0.005390 -0.012404
  3H   1py        0.059051  0.080460 -0.075556  0.079596  0.073621 -0.021516
  4C   1s         0.162913  0.000000  0.000122  0.000000 -0.000041 -0.150541
  4C   2s        -0.896116 -0.000000 -0.000722 -0.000000  0.000488  1.181406
  4C   3s         2.068339  0.000000  0.001683 -0.000000 -0.001221 -2.970683
  4C   1pz       -0.279840 -0.000000 -0.000041  0.000000 -0.000483 -0.476080
  4C   1px       -0.000202 -0.000000  0.657955  0.000000  0.655944 -0.000491
  4C   1py        0.000000 -0.657921  0.000000  0.655902  0.000000  0.000000
  4C   2pz        0.353641  0.000000  0.000051 -0.000000  0.000647  0.653009
  4C   2px        0.000299 -0.000000 -1.108087 -0.000000 -1.198898  0.001034
  4C   2py        0.000000  1.107906 -0.000000 -1.198710  0.000000 -0.000000
  4C   1dz2      -0.095563 -0.000000 -0.000034  0.000000 -0.000046 -0.029377
  4C   1dxz      -0.000015 -0.000000 -0.001673 -0.000000  0.002632 -0.000025
  4C   1dyz      -0.000000  0.001673 -0.000000  0.002636  0.000000 -0.000000
  4C   1dx2y2     0.000061  0.000000 -0.104307 -0.000000 -0.105800  0.000052
  4C   1dxy       0.000000 -0.104328  0.000000  0.105823  0.000000  0.000000
  5H   1s         0.407133  0.000000 -0.404198 -0.000000 -0.420469  0.155105
  5H   2s        -0.850231 -0.000000  1.186878  0.000000  1.359916  0.677250
  5H   1pz       -0.001109  0.000000 -0.005919 -0.000000  0.007871  0.018934
  5H   1px        0.068267  0.000000 -0.124024 -0.000000 -0.122096 -0.024697
  5H   1py        0.000000 -0.050355  0.000000  0.047921  0.000000  0.000000
  6H   1s         0.406786  0.350275  0.202340 -0.364451  0.210610  0.154705
  6H   2s        -0.849508 -1.028355 -0.594266  1.177638 -0.679756  0.678902
  6H   1pz       -0.001100  0.005127  0.002961  0.006809 -0.003920  0.018953
  6H   1px       -0.034126 -0.075523  0.006712  0.073619  0.005390  0.012404
  6H   1py        0.059051  0.080460  0.075556 -0.079596  0.073621 -0.021516
  7H   1s         0.406786 -0.350275  0.202340  0.364451  0.210610  0.154705
  7H   2s        -0.849508  1.028355 -0.594266 -1.177638 -0.679756  0.678902
  7H   1pz       -0.001100 -0.005127  0.002961 -0.006809 -0.003920  0.018953
  7H   1px       -0.034126  0.075523  0.006712 -0.073619  0.005390  0.012404
  7H   1py       -0.059051  0.080460 -0.075556 -0.079596 -0.073621  0.021516
                     30        31        32        33        34        35   
                   1.19910   1.19913   1.19931   1.19934   1.48273   1.48273
                   0.00000   0.00000   0.00000   0.00000   0.00000   0.00000
                  --------  --------  --------  --------  --------  --------
  0C   1s        -0.000000 -0.000000 -0.000000  0.000002 -0.000000 -0.000000
  0C   2s         0.000000  0.000001  0.000000 -0.000020  0.000000  0.000000
  0C   3s        -0.000000 -0.000004 -0.000000  0.000053 -0.000000 -0.000000
  0C   1pz        0.000000 -0.000013 -0.000000 -0.000023 -0.000000  0.000000
  0C   1px       -0.000000 -0.007300 -0.000000  0.010158  0.000000  0.000000
  0C   1py        0.007296  0.000000 -0.010161  0.000000 -0.000025 -0.000025
  0C   2pz       -0.000000  0.000018 -0.000000  0.000033  0.000000 -0.000000
  0C   2px        0.000000  0.024456  0.000000 -0.032838  0.000000 -0.000000
  0C   2py       -0.024454  0.000000  0.032841 -0.000000 -0.000007 -0.000008
  0C   1dz2       0.000000 -0.000000 -0.000000  0.000002  0.000000  0.000000
  0C   1dxz       0.000000  0.309023  0.000000  0.309042 -0.000000  0.000000
  0C   1dyz      -0.309059  0.000000 -0.309079 -0.000000  0.000000  0.000000
  0C   1dx2y2     0.000000  0.006399  0.000000 -0.007717 -0.000000 -0.000000
  0C   1dxy       0.006402 -0.000000 -0.007716  0.000000  0.000003  0.000004
  1H   1s         0.000000  0.009677  0.000000 -0.012669 -0.000000 -0.000000
  1H   2s         0.000000 -0.039341  0.000000  0.053220  0.000000  0.000000
  1H   1pz       -0.000000  0.424981  0.000000  0.424894 -0.000000 -0.000000
  1H   1px        0.000000 -0.002309  0.000000  0.002915 -0.000000 -0.000000
  1H   1py        0.006511 -0.000000 -0.007712 -0.000000 -0.416611 -0.416610
  2H   1s        -0.008379 -0.004837  0.010970  0.006327  0.000004  0.000005
  2H   2s         0.034073  0.019670 -0.046105 -0.026625  0.000004  0.000005
  2H   1pz       -0.368020 -0.212490 -0.367942 -0.212442  0.000000  0.000000
  2H   1px        0.001819 -0.005455 -0.002078  0.006515  0.360790  0.360790
  2H   1py        0.003361 -0.001818 -0.004113  0.002078  0.208302  0.208303
  3H   1s         0.008379 -0.004837 -0.010970  0.006327 -0.000004 -0.000005
  3H   2s        -0.034073  0.019670  0.046105 -0.026625 -0.000004 -0.000005
  3H   1pz        0.368020 -0.212490  0.367942 -0.212442 -0.000000 -0.000000
  3H   1px       -0.001819 -0.005455  0.002078  0.006515 -0.360790 -0.360790
  3H   1py        0.003361  0.001818 -0.004113 -0.002078  0.208302  0.208303
  4C   1s         0.000000 -0.000000  0.000000 -0.000002 -0.000000  0.000000
  4C   2s        -0.000000  0.000001 -0.000000  0.000020  0.000000 -0.000000
  4C   3s         0.000000 -0.000004  0.000000 -0.000053 -0.000000  0.000000
  4C   1pz       -0.000000  0.000013 -0.000000 -0.000023  0.000000  0.000000
  4C   1px       -0.000000 -0.007300  0.000000 -0.010158  0.000000 -0.000000
  4C   1py        0.007296 -0.000000  0.010161 -0.000000 -0.000025  0.000025
  4C   2pz        0.000000 -0.000018 -0.000000  0.000033 -0.000000 -0.000000
  4C   2px       -0.000000  0.024456 -0.000000  0.032838  0.000000  0.000000
  4C   2py       -0.024454  0.000000 -0.032841  0.000000 -0.000007  0.000008
  4C   1dz2       0.000000 -0.000000  0.000000 -0.000002  0.000000  0.000000
  4C   1dxz       0.000000 -0.309023 -0.000000  0.309042 -0.000000 -0.000000
  4C   1dyz       0.309059 -0.000000 -0.309079 -0.000000 -0.000000  0.000000
  4C   1dx2y2     0.000000  0.006399 -0.000000  0.007717 -0.000000  0.000000
  4C   1dxy       0.006402 -0.000000  0.007716 -0.000000  0.000003 -0.000004
  5H   1s        -0.000000  0.009677 -0.000000  0.012669 -0.000000 -0.000000
  5H   2s         0.000000 -0.039341 -0.000000 -0.053220  0.000000 -0.000000
  5H   1pz       -0.000000 -0.424981 -0.000000  0.424894 -0.000000 -0.000000
  5H   1px        0.000000 -0.002309 -0.000000 -0.002915 -0.000000  0.000000
  5H   1py        0.006511 -0.000000  0.007712 -0.000000 -0.416611  0.416610
  6H   1s        -0.008379 -0.004837 -0.010970 -0.006327  0.000004 -0.000005
  6H   2s         0.034073  0.019670  0.046105  0.026625  0.000004 -0.000005
  6H   1pz        0.368020  0.212490 -0.367942 -0.212442 -0.000000  0.000000
  6H   1px        0.001819 -0.005455  0.002078 -0.006515  0.360790 -0.360790
  6H   1py        0.003361 -0.001818  0.004113 -0.002078  0.208302 -0.208303
  7H   1s         0.008379 -0.004837  0.010970 -0.006327 -0.000004  0.000005
  7H   2s        -0.034073  0.019670 -0.046105  0.026625 -0.000004  0.000005
  7H   1pz       -0.368020  0.212490  0.367942 -0.212442  0.000000 -0.000000
  7H   1px       -0.001819 -0.005455 -0.002078 -0.006515 -0.360790  0.360790
  7H   1py        0.003361  0.001818  0.004113  0.002078  0.208302 -0.208303
                     36        37        38        39        40        41   
                   1.58770   1.58770   1.63211   1.63212   1.71759   1.79272
                   0.00000   0.00000   0.00000   0.00000   0.00000   0.00000
                  --------  --------  --------  --------  --------  --------
  0C   1s        -0.000000  0.000006  0.000000  0.000007 -0.004753  0.014060
  0C   2s         0.000000 -0.000049 -0.000000 -0.000062  0.044418 -0.129629
  0C   3s        -0.000000  0.000192  0.000000  0.000247 -0.136215 -0.087590
  0C   1pz       -0.000000  0.000012 -0.000000 -0.000001  0.190645 -0.093235
  0C   1px        0.000000  0.091712 -0.000000  0.118395 -0.000004  0.000016
  0C   1py       -0.091689  0.000000 -0.118361  0.000000  0.000000 -0.000000
  0C   2pz        0.000000 -0.000005  0.000000  0.000000  0.236150 -0.348619
  0C   2px       -0.000000 -0.733309 -0.000000 -0.800506  0.000022 -0.000054
  0C   2py        0.733278 -0.000000  0.800453 -0.000000 -0.000000  0.000000
  0C   1dz2       0.000000  0.000021  0.000000  0.000034 -0.025018 -0.292812
  0C   1dxz      -0.000000  0.003541  0.000000 -0.004289  0.000013 -0.000007
  0C   1dyz      -0.003543  0.000000  0.004290 -0.000000  0.000000  0.000000
  0C   1dx2y2    -0.000000 -0.231104  0.000000 -0.226943  0.000004 -0.000004
  0C   1dxy      -0.231103  0.000000 -0.226944  0.000000  0.000000 -0.000000
  1H   1s        -0.000000  0.338163 -0.000000  0.371072  0.005746 -0.036550
  1H   2s         0.000000  0.252830 -0.000000  0.238925  0.029974  0.057697
  1H   1pz        0.000000  0.007453  0.000000 -0.008622 -0.458120  0.400354
  1H   1px       -0.000000  0.230419  0.000000  0.240379 -0.006690 -0.121941
  1H   1py       -0.461876  0.000000 -0.462583  0.000000  0.000000  0.000000
  2H   1s        -0.292856 -0.169084 -0.321348 -0.185542  0.005758 -0.036570
  2H   2s        -0.218996 -0.126502 -0.206964 -0.119572  0.029987  0.057659
  2H   1pz       -0.006469 -0.003743  0.007466  0.004317 -0.458098  0.400343
  2H   1px       -0.100234  0.403994 -0.096228  0.407008  0.003333  0.060995
  2H   1py       -0.288287  0.100238 -0.295929  0.096235 -0.005789 -0.105604
  3H   1s         0.292856 -0.169084  0.321348 -0.185542  0.005758 -0.036570
  3H   2s         0.218996 -0.126502  0.206964 -0.119572  0.029987  0.057659
  3H   1pz        0.006469 -0.003743 -0.007466  0.004317 -0.458098  0.400343
  3H   1px        0.100234  0.403994  0.096228  0.407008  0.003333  0.060995
  3H   1py       -0.288287 -0.100238 -0.295929 -0.096235  0.005789  0.105604
  4C   1s        -0.000000  0.000006 -0.000000 -0.000007 -0.004753 -0.014060
  4C   2s         0.000000 -0.000049  0.000000  0.000062  0.044418  0.129629
  4C   3s        -0.000000  0.000192 -0.000000 -0.000247 -0.136215  0.087590
  4C   1pz        0.000000 -0.000012 -0.000000 -0.000001 -0.190645 -0.093235
  4C   1px        0.000000  0.091712  0.000000 -0.118395 -0.000004 -0.000016
  4C   1py       -0.091689  0.000000  0.118361 -0.000000 -0.000000 -0.000000
  4C   2pz       -0.000000  0.000005  0.000000  0.000000 -0.236150 -0.348619
  4C   2px       -0.000000 -0.733309  0.000000  0.800506  0.000022  0.000054
  4C   2py        0.733278 -0.000000 -0.800453 -0.000000  0.000000  0.000000
  4C   1dz2       0.000000  0.000021 -0.000000 -0.000034 -0.025018  0.292812
  4C   1dxz       0.000000 -0.003541  0.000000 -0.004289 -0.000013 -0.000007
  4C   1dyz       0.003543  0.000000  0.004290  0.000000  0.000000 -0.000000
  4C   1dx2y2    -0.000000 -0.231104 -0.000000  0.226943  0.000004  0.000004
  4C   1dxy      -0.231103  0.000000  0.226944 -0.000000 -0.000000 -0.000000
  5H   1s        -0.000000  0.338163  0.000000 -0.371072  0.005746  0.036550
  5H   2s         0.000000  0.252830  0.000000 -0.238925  0.029974 -0.057697
  5H   1pz       -0.000000 -0.007453  0.000000 -0.008622  0.458120  0.400354
  5H   1px       -0.000000  0.230419 -0.000000 -0.240379 -0.006690  0.121941
  5H   1py       -0.461876  0.000000  0.462583 -0.000000 -0.000000  0.000000
  6H   1s        -0.292856 -0.169084  0.321348  0.185542  0.005758  0.036570
  6H   2s        -0.218996 -0.126502  0.206964  0.119572  0.029987 -0.057659
  6H   1pz        0.006469  0.003743  0.007466  0.004317  0.458098  0.400343
  6H   1px       -0.100234  0.403994  0.096228 -0.407008  0.003333 -0.060995
  6H   1py       -0.288287  0.100238  0.295929 -0.096235 -0.005789  0.105604
  7H   1s         0.292856 -0.169084 -0.321348  0.185542  0.005758  0.036570
  7H   2s         0.218996 -0.126502 -0.206964  0.119572  0.029987 -0.057659
  7H   1pz       -0.006469  0.003743 -0.007466  0.004317  0.458098  0.400343
  7H   1px        0.100234  0.403994 -0.096228 -0.407008  0.003333 -0.060995
  7H   1py       -0.288287 -0.100238  0.295929  0.096235  0.005789 -0.105604
                     42        43        44        45        46        47   
                   1.82703   1.84906   2.21963   2.21969   2.21995   2.22002
                   0.00000   0.00000   0.00000   0.00000   0.00000   0.00000
                  --------  --------  --------  --------  --------  --------
  0C   1s         0.057437 -0.064822 -0.000000  0.000000 -0.000000  0.000001
  0C   2s        -0.509252  0.587439  0.000000  0.000021  0.000000 -0.000018
  0C   3s         0.410234 -0.684398 -0.000000 -0.000015 -0.000000  0.000022
  0C   1pz       -0.003020 -0.026500  0.000000  0.000046  0.000000  0.000045
  0C   1px        0.000028 -0.000032 -0.000000 -0.138075  0.000000  0.078504
  0C   1py       -0.000000  0.000000 -0.137478 -0.000000  0.078356  0.000000
  0C   2pz       -0.026633 -0.285858 -0.000000  0.000004 -0.000000  0.000009
  0C   2px       -0.000111  0.000137  0.000000 -0.104459 -0.000000  0.060727
  0C   2py        0.000000 -0.000000 -0.103905  0.000000  0.060565 -0.000000
  0C   1dz2      -0.536121  0.446756 -0.000000  0.000003  0.000000 -0.000006
  0C   1dxz       0.000002 -0.000006  0.000000 -0.692632 -0.000000 -0.708515
  0C   1dyz      -0.000000 -0.000000 -0.692839 -0.000000 -0.708539 -0.000000
  0C   1dx2y2    -0.000001  0.000003  0.000000  0.063679 -0.000000 -0.036702
  0C   1dxy      -0.000000  0.000000 -0.063386 -0.000000  0.036624  0.000000
  1H   1s        -0.100706  0.127275 -0.000000  0.054672  0.000000 -0.031072
  1H   2s        -0.007919  0.048848 -0.000000  0.098815  0.000000 -0.058225
  1H   1pz        0.019549  0.250965  0.000000  0.460643 -0.000000  0.471454
  1H   1px       -0.250058  0.221375 -0.000000 -0.132726  0.000000  0.075532
  1H   1py       -0.000000 -0.000000  0.119362 -0.000000 -0.068602 -0.000000
  2H   1s        -0.100735  0.127310  0.047144 -0.027345 -0.026860  0.015539
  2H   2s        -0.008018  0.048973  0.085123 -0.049401 -0.050286  0.029105
  2H   1pz        0.019552  0.250955  0.399112 -0.230369  0.408369 -0.235776
  2H   1px        0.125073 -0.110739  0.108908  0.056753 -0.062351 -0.032675
  2H   1py       -0.216550  0.191715 -0.069263  0.109403  0.039387 -0.062478
  3H   1s        -0.100735  0.127310 -0.047144 -0.027345  0.026860  0.015539
  3H   2s        -0.008018  0.048973 -0.085123 -0.049401  0.050286  0.029105
  3H   1pz        0.019552  0.250955 -0.399112 -0.230369 -0.408369 -0.235776
  3H   1px        0.125073 -0.110739 -0.108908  0.056753  0.062351 -0.032675
  3H   1py        0.216550 -0.191715 -0.069263 -0.109403  0.039387  0.062478
  4C   1s         0.057437  0.064822 -0.000000  0.000000  0.000000 -0.000001
  4C   2s        -0.509252 -0.587439  0.000000  0.000021 -0.000000  0.000018
  4C   3s         0.410234  0.684398 -0.000000 -0.000015  0.000000 -0.000022
  4C   1pz        0.003020 -0.026500 -0.000000 -0.000046  0.000000  0.000045
  4C   1px        0.000028  0.000032 -0.000000 -0.138075 -0.000000 -0.078504
  4C   1py        0.000000 -0.000000 -0.137478 -0.000000 -0.078356 -0.000000
  4C   2pz        0.026633 -0.285858 -0.000000 -0.000004 -0.000000  0.000009
  4C   2px       -0.000111 -0.000137  0.000000 -0.104459  0.000000 -0.060727
  4C   2py        0.000000 -0.000000 -0.103905  0.000000 -0.060565  0.000000
  4C   1dz2      -0.536121 -0.446756  0.000000  0.000003 -0.000000  0.000006
  4C   1dxz      -0.000002 -0.000006  0.000000  0.692632  0.000000 -0.708515
  4C   1dyz      -0.000000 -0.000000  0.692839  0.000000 -0.708539 -0.000000
  4C   1dx2y2    -0.000001 -0.000003  0.000000  0.063679  0.000000  0.036702
  4C   1dxy      -0.000000  0.000000 -0.063386  0.000000 -0.036624 -0.000000
  5H   1s        -0.100706 -0.127275 -0.000000  0.054672 -0.000000  0.031072
  5H   2s        -0.007919 -0.048848 -0.000000  0.098815 -0.000000  0.058225
  5H   1pz       -0.019549  0.250965  0.000000 -0.460643 -0.000000  0.471454
  5H   1px       -0.250058 -0.221375  0.000000 -0.132726 -0.000000 -0.075532
  5H   1py       -0.000000  0.000000  0.119362  0.000000  0.068602 -0.000000
  6H   1s        -0.100735 -0.127310  0.047144 -0.027345  0.026860 -0.015539
  6H   2s        -0.008018 -0.048973  0.085123 -0.049401  0.050286 -0.029105
  6H   1pz       -0.019552  0.250955 -0.399112  0.230369  0.408369 -0.235776
  6H   1px        0.125073  0.110739  0.108908  0.056753  0.062351  0.032675
  6H   1py       -0.216550 -0.191715 -0.069263  0.109403 -0.039387  0.062478
  7H   1s        -0.100735 -0.127310 -0.047144 -0.027345 -0.026860 -0.015539
  7H   2s        -0.008018 -0.048973 -0.085123 -0.049401 -0.050286 -0.029105
  7H   1pz       -0.019552  0.250955  0.399112  0.230369 -0.408369 -0.235776
  7H   1px        0.125073  0.110739 -0.108908  0.056753 -0.062351  0.032675
  7H   1py        0.216550  0.191715 -0.069263 -0.109403 -0.039387 -0.062478
                     48        49        50        51        52        53   
                   2.23345   2.23346   2.24891   2.24891   2.84222   2.86494
                   0.00000   0.00000   0.00000   0.00000   0.00000   0.00000
                  --------  --------  --------  --------  --------  --------
  0C   1s        -0.000000 -0.000000 -0.000000 -0.000000 -0.192502  0.186122
  0C   2s         0.000000  0.000074  0.000000  0.000079  1.207367 -1.139132
  0C   3s        -0.000000 -0.000039 -0.000000 -0.000046  0.690715 -0.928252
  0C   1pz       -0.000000 -0.000012  0.000000  0.000008  0.000919  0.009377
  0C   1px       -0.000000 -0.508545 -0.000000 -0.500781 -0.000154  0.000147
  0C   1py       -0.508703  0.000000 -0.500802  0.000000 -0.000000 -0.000000
  0C   2pz        0.000000 -0.000001 -0.000000 -0.000005 -0.011137 -0.040554
  0C   2px        0.000000 -0.448720  0.000000 -0.518634 -0.000062  0.000073
  0C   2py       -0.448750  0.000000 -0.518544  0.000000 -0.000000  0.000000
  0C   1dz2       0.000000  0.000025 -0.000000  0.000022 -0.736098  0.740801
  0C   1dxz       0.000000  0.181250  0.000000 -0.102807  0.000002 -0.000000
  0C   1dyz       0.180435 -0.000000 -0.102600  0.000000 -0.000000 -0.000000
  0C   1dx2y2     0.000000  0.246176  0.000000  0.260576 -0.000029  0.000023
  0C   1dxy      -0.246234  0.000000 -0.260568  0.000000 -0.000000  0.000000
  1H   1s         0.000000  0.198298  0.000000  0.189287 -0.555301  0.566873
  1H   2s         0.000000  0.434370  0.000000  0.522266 -0.212638  0.277324
  1H   1pz       -0.000000 -0.123301  0.000000  0.071806  0.004508  0.013618
  1H   1px        0.000000 -0.500907 -0.000000 -0.505919  0.643988 -0.647583
  1H   1py        0.464487 -0.000000  0.484687 -0.000000  0.000000 -0.000000
  2H   1s         0.171782 -0.099177  0.163925 -0.094673 -0.555487  0.567054
  2H   2s         0.376246 -0.217171  0.452279 -0.261116 -0.212697  0.277397
  2H   1pz       -0.106328  0.061663  0.062074 -0.035906  0.004509  0.013618
  2H   1px        0.418115  0.223048  0.428975  0.237038 -0.322063  0.323853
  2H   1py       -0.259671  0.417999 -0.258281  0.428971  0.557807 -0.560913
  3H   1s        -0.171782 -0.099177 -0.163925 -0.094673 -0.555487  0.567054
  3H   2s        -0.376246 -0.217171 -0.452279 -0.261116 -0.212697  0.277397
  3H   1pz        0.106328  0.061663 -0.062074 -0.035906  0.004509  0.013618
  3H   1px       -0.418115  0.223048 -0.428975  0.237038 -0.322063  0.323853
  3H   1py       -0.259671 -0.417999 -0.258281 -0.428971 -0.557807  0.560913
  4C   1s        -0.000000 -0.000000 -0.000000  0.000000 -0.192502 -0.186122
  4C   2s         0.000000  0.000074 -0.000000 -0.000079  1.207367  1.139132
  4C   3s        -0.000000 -0.000039  0.000000  0.000046  0.690715  0.928252
  4C   1pz        0.000000  0.000012  0.000000  0.000008 -0.000919  0.009377
  4C   1px       -0.000000 -0.508545 -0.000000  0.500781 -0.000154 -0.000147
  4C   1py       -0.508703  0.000000  0.500802 -0.000000 -0.000000  0.000000
  4C   2pz       -0.000000  0.000001 -0.000000 -0.000005  0.011137 -0.040554
  4C   2px        0.000000 -0.448720  0.000000  0.518634 -0.000062 -0.000073
  4C   2py       -0.448750  0.000000  0.518544 -0.000000 -0.000000 -0.000000
  4C   1dz2       0.000000  0.000025  0.000000 -0.000022 -0.736098 -0.740801
  4C   1dxz      -0.000000 -0.181250 -0.000000 -0.102807 -0.000002 -0.000000
  4C   1dyz      -0.180435  0.000000 -0.102600 -0.000000  0.000000  0.000000
  4C   1dx2y2     0.000000  0.246176  0.000000 -0.260576 -0.000029 -0.000023
  4C   1dxy      -0.246234  0.000000  0.260568  0.000000 -0.000000 -0.000000
  5H   1s         0.000000  0.198298 -0.000000 -0.189287 -0.555301 -0.566873
  5H   2s         0.000000  0.434370 -0.000000 -0.522266 -0.212638 -0.277324
  5H   1pz        0.000000  0.123301  0.000000  0.071806 -0.004508  0.013618
  5H   1px        0.000000 -0.500907 -0.000000  0.505919  0.643988  0.647583
  5H   1py        0.464487 -0.000000 -0.484687  0.000000  0.000000  0.000000
  6H   1s         0.171782 -0.099177 -0.163925  0.094673 -0.555487 -0.567054
  6H   2s         0.376246 -0.217171 -0.452279  0.261116 -0.212697 -0.277397
  6H   1pz        0.106328 -0.061663  0.062074 -0.035906 -0.004509  0.013618
  6H   1px        0.418115  0.223048 -0.428975 -0.237038 -0.322063 -0.323853
  6H   1py       -0.259671  0.417999  0.258281 -0.428971  0.557807  0.560913
  7H   1s        -0.171782 -0.099177  0.163925  0.094673 -0.555487 -0.567054
  7H   2s        -0.376246 -0.217171  0.452279  0.261116 -0.212697 -0.277397
  7H   1pz       -0.106328 -0.061663 -0.062074 -0.035906 -0.004509  0.013618
  7H   1px       -0.418115  0.223048  0.428975 -0.237038 -0.322063 -0.323853
  7H   1py       -0.259671 -0.417999  0.258281  0.428971 -0.557807 -0.560913
                     54        55        56        57   
                   2.91481   2.91483   2.92167   2.92169
                   0.00000   0.00000   0.00000   0.00000
                  --------  --------  --------  --------
  0C   1s         0.000010  0.000000 -0.000008  0.000000
  0C   2s         0.000067 -0.000000 -0.000078 -0.000000
  0C   3s        -0.000038 -0.000000  0.000038  0.000000
  0C   1pz        0.000000 -0.000000 -0.000001 -0.000000
  0C   1px       -0.771537 -0.000000  0.773230  0.000000
  0C   1py        0.000000 -0.771662  0.000000  0.773353
  0C   2pz       -0.000000  0.000000  0.000002  0.000000
  0C   2px       -0.295003 -0.000000  0.344632  0.000000
  0C   2py       -0.000000 -0.295033  0.000000  0.344658
  0C   1dz2       0.000013  0.000000 -0.000007  0.000000
  0C   1dxz       0.001827 -0.000000  0.002228 -0.000000
  0C   1dyz       0.000000  0.001828 -0.000000  0.002227
  0C   1dx2y2    -0.984446 -0.000000  0.984542 -0.000000
  0C   1dxy       0.000000  0.984496  0.000000 -0.984593
  1H   1s         0.745589  0.000000 -0.753194  0.000000
  1H   2s         0.189748  0.000000 -0.234991 -0.000000
  1H   1pz       -0.001192 -0.000000 -0.001643 -0.000000
  1H   1px       -0.761332 -0.000000  0.770042 -0.000000
  1H   1py        0.000000 -0.225549 -0.000000  0.212698
  2H   1s        -0.372828  0.645840  0.376638 -0.652429
  2H   2s        -0.094857  0.164330  0.117478 -0.203513
  2H   1pz        0.000596 -0.001033  0.000821 -0.001423
  2H   1px       -0.359532  0.232040  0.352072 -0.241378
  2H   1py        0.231948 -0.627422 -0.241290  0.630744
  3H   1s        -0.372828 -0.645840  0.376638  0.652429
  3H   2s        -0.094857 -0.164330  0.117478  0.203513
  3H   1pz        0.000596  0.001033  0.000821  0.001423
  3H   1px       -0.359532 -0.232040  0.352072  0.241378
  3H   1py       -0.231948 -0.627422  0.241290  0.630744
  4C   1s         0.000010  0.000000  0.000008 -0.000000
  4C   2s         0.000067 -0.000000  0.000078  0.000000
  4C   3s        -0.000038 -0.000000 -0.000038 -0.000000
  4C   1pz       -0.000000 -0.000000 -0.000001 -0.000000
  4C   1px       -0.771537 -0.000000 -0.773230 -0.000000
  4C   1py        0.000000 -0.771662  0.000000 -0.773353
  4C   2pz        0.000000  0.000000  0.000002  0.000000
  4C   2px       -0.295003 -0.000000 -0.344632 -0.000000
  4C   2py       -0.000000 -0.295033 -0.000000 -0.344658
  4C   1dz2       0.000013  0.000000  0.000007 -0.000000
  4C   1dxz      -0.001827  0.000000  0.002228 -0.000000
  4C   1dyz       0.000000 -0.001828  0.000000  0.002227
  4C   1dx2y2    -0.984446 -0.000000 -0.984542  0.000000
  4C   1dxy       0.000000  0.984496 -0.000000  0.984593
  5H   1s         0.745589  0.000000  0.753194 -0.000000
  5H   2s         0.189748  0.000000  0.234991  0.000000
  5H   1pz        0.001192 -0.000000 -0.001643 -0.000000
  5H   1px       -0.761332 -0.000000 -0.770042  0.000000
  5H   1py        0.000000 -0.225549  0.000000 -0.212698
  6H   1s        -0.372828  0.645840 -0.376638  0.652429
  6H   2s        -0.094857  0.164330 -0.117478  0.203513
  6H   1pz       -0.000596  0.001033  0.000821 -0.001423
  6H   1px       -0.359532  0.232040 -0.352072  0.241378
  6H   1py        0.231948 -0.627422  0.241290 -0.630744
  7H   1s        -0.372828 -0.645840 -0.376638 -0.652429
  7H   2s        -0.094857 -0.164330 -0.117478 -0.203513
  7H   1pz       -0.000596 -0.001033  0.000821  0.001423
  7H   1px       -0.359532 -0.232040 -0.352072 -0.241378
  7H   1py       -0.231948 -0.627422 -0.241290 -0.630744
             **** ENERGY FILE WAS UPDATED (d3h.en.tmp) ****
Finished Guess after   0.0 sec
Maximum memory used throughout the entire GUESS-calculation: 4.2 MB
-------------------------------------------------------------------------------
                              ORCA-CASSCF
-------------------------------------------------------------------------------

Building the CAS space              ... done (1 configurations for Mult=3)
Building the CAS space              ... done (3 configurations for Mult=1)
Memory for address arrays  		      ... done
Make address arrays			      ... done
Memory for buffers 			      ... done
Setting up spin-function prototypes	      ... (MAXOPEN=2) 2 4 done
Trivial cases - DOMO's			      ... done (  0.0 MB)
Number of open shells			    ...  2
domo->virtual excitations			... done (  0.0 MB)
domo->somo excitations				... done (  0.0 MB)
somo->virtual excitations			... done (  0.0 MB)
somo->somo excitations				... done (  0.0 MB)
Coupling container construction done
Memory for address arrays  		      ... done
Make address arrays			      ... done
Memory for buffers 			      ... done
Setting up spin-function prototypes	      ... (MAXOPEN=2) 0 2 4 done
Trivial cases - DOMO's			      ... done (  0.0 MB)
Number of open shells			    ...  0
domo->virtual excitations			... done (  0.0 MB)
domo->somo excitations				... done (  0.0 MB)
somo->virtual excitations			... done (  0.0 MB)
somo->somo excitations				... done (  0.0 MB)
Number of open shells			    ...  2
domo->virtual excitations			... done (  0.0 MB)
domo->somo excitations				... done (  0.0 MB)
somo->virtual excitations			... done (  0.0 MB)
somo->somo excitations				... done (  0.0 MB)
Coupling container construction done

 CASSCF (estimated) memory needed     ... 0.3 MB
 CASPT2 (estimated) memory needed     ... 0.9 MB 


SYSTEM-SPECIFIC SETTINGS:
Number of active electrons          ...    2
Number of active orbitals           ...    2
Total number of electrons           ...   18
Total number of orbitals            ...   58

Determined orbital ranges:
   Internal       0 -    7 (   8 orbitals)
   Active         8 -    9 (   2 orbitals)
   External      10 -   57 (  48 orbitals)
Number of rotation parameters      ...    496

CI-STEP:
CI strategy                         ... General CI
Number of multiplicity blocks       ...    2
BLOCK  0 WEIGHT=   0.5000
  Multiplicity                      ...    3
  #(Configurations)                 ...    1
  #(CSFs)                           ...    1
  #(Roots)                          ...    1
    ROOT=0 WEIGHT=    0.500000

BLOCK  1 WEIGHT=   0.5000
  Multiplicity                      ...    1
  #(Configurations)                 ...    3
  #(CSFs)                           ...    3
  #(Roots)                          ...    1
    ROOT=0 WEIGHT=    0.500000

  PrintLevel                        ...    1
  N(GuessMat)                       ...      2048
  MaxDim(CI)                        ...        10
  MaxIter(CI)                       ...        64
  Energy Tolerance CI               ...  2.50e-09
  Residual Tolerance CI             ...  2.50e-09
  Shift(CI)                         ...  1.00e-04

INTEGRAL-TRANSFORMATION-STEP:
  Algorithm                         ... EXACT

ORBITAL-IMPROVEMENT-STEP:
  Algorithm                         ... SuperCI(PT)
  Default Parametrization           ... CAYLEY
  Act-Act rotations                 ... depends on algorithm used

  Note: SuperCI(PT) will ignore FreezeIE, FreezeAct and FreezeGrad. In general Default settings are encouraged.
        In conjunction with ShiftUp, ShiftDn or GradScaling the performance of SuperCI(PT) is less optimal.  

  MaxRot                            ... 2.00e-01 
  Max. no of vectors (DIIS)         ... 15
  DThresh (cut-off) metric          ... 1.00e-06
  Switch step at gradient           ...  3.00e-02 
  Switch step at iteration          ...        50   
  Switch step to                    ... SuperCI(PT)    

SCF-SETTINGS:
  Incremental                       ... on
  RIJCOSX approximation             ... off
  RI-JK approximation               ... off
  AO integral handling              ... DIRECT
  Integral Neglect Thresh           ...  2.50e-11
  Primitive cutoff TCut             ...  2.50e-12
  Energy convergence tolerance      ...  2.50e-08
  Orbital gradient convergence      ...  2.50e-04
  Max. number of iterations         ...        75  

PT2-SETTINGS:
  A PT2 calculation will be performed on top of the CASSCF wave function (PT2 = CASPT2)   
  CASPT2 Real Levelshift            ...  0.00e+00
  CASPT2 Im.  Levelshift            ...  0.00e+00
  CASPT2 IPEA Levelshift            ...  0.00e+00
 CI step strategy                   ... General CI
  D4C handling                      ... PS approximation (factorized) 
  CI truncation for D4C at          ...  1.00e-12
  CI truncation for D3  at          ...  1.00e-14
  Orbitals                          ... canonical for each state 
  Last  frozen  orbital             ... 1
  First deleted orbital             ... 58

FINAL ORBITALS:
  Active   Orbitals                 ... natural 
  Internal Orbitals                 ... canonical 
  External Orbitals                 ... canonical 

------------------
CAS-SCF ITERATIONS
------------------


MACRO-ITERATION   1: 
   --- Inactive Energy E0 = -78.17418060 Eh
CI-ITERATION   0: 
   -79.040589369   0.000000000000 (    0.00)
   CI-PROBLEM SOLVED
   DENSITIES MADE
CI-ITERATION   0: 
   -79.045558951   0.000000000000 (    0.00)
   CI-PROBLEM SOLVED
   DENSITIES MADE

                 <<<<<<<<<<<<<<<<<<INITIAL CI STATE CHECK>>>>>>>>>>>>>>>>>>

BLOCK  0 MULT= 3 NROOTS= 1 
ROOT   0:  E=     -79.0405893688 Eh
      1.00000 [     0]: 11

BLOCK  1 MULT= 1 NROOTS= 1 
ROOT   0:  E=     -79.0455589508 Eh
      0.62695 [     0]: 20
      0.37305 [     2]: 02

                 <<<<<<<<<<<<<<<<<<INITIAL CI STATE CHECK>>>>>>>>>>>>>>>>>>

   E(CAS)=   -79.043074160 Eh DE=    0.000000e+00
   --- Energy gap subspaces: Ext-Act = 0.238   Act-Int = 0.437
   N(occ)=  1.12695 0.87305
   ||g|| =     5.546267e-01 Max(G)=   -1.603756e-01 Rot=23,1
   --- Orbital Update [SuperCI(PT)]
   --- Canonicalize Internal Space
   --- Canonicalize External Space
   --- SX_PT (Skipped TA=0 IT=0): ||X|| =      0.070131868 Max(X)(22,8) =      0.021031882 
   --- SFit(Active Orbitals)

MACRO-ITERATION   2: 
   --- Inactive Energy E0 = -78.13338735 Eh
CI-ITERATION   0: 
   -79.054755912   0.000000000000 (    0.00)
   CI-PROBLEM SOLVED
   DENSITIES MADE
CI-ITERATION   0: 
   -79.059233710   0.000000000000 (    0.00)
   CI-PROBLEM SOLVED
   DENSITIES MADE
   E(CAS)=   -79.056994811 Eh DE=   -1.392065e-02
   --- Energy gap subspaces: Ext-Act = 0.267   Act-Int = 0.428
   N(occ)=  1.12449 0.87551
   ||g|| =     1.106505e-01 Max(G)=   -2.225584e-02 Rot=23,1
   --- Orbital Update [SuperCI(PT)]
   --- Canonicalize Internal Space
   --- Canonicalize External Space
   --- SX_PT (Skipped TA=0 IT=0): ||X|| =      0.020531905 Max(X)(22,8) =      0.006991207 
   --- SFit(Active Orbitals)

MACRO-ITERATION   3: 
   --- Inactive Energy E0 = -78.14869755 Eh
CI-ITERATION   0: 
   -79.055483287   0.000000000000 (    0.00)
   CI-PROBLEM SOLVED
   DENSITIES MADE
CI-ITERATION   0: 
   -79.060067517   0.000000000000 (    0.00)
   CI-PROBLEM SOLVED
   DENSITIES MADE
   E(CAS)=   -79.057775402 Eh DE=   -7.805907e-04
   --- Energy gap subspaces: Ext-Act = 0.260   Act-Int = 0.431
   N(occ)=  1.12427 0.87573
   ||g|| =     2.100817e-02 Max(G)=    6.219111e-03 Rot=42,2
   --- Orbital Update [SuperCI(PT)]
   --- Canonicalize Internal Space
   --- Canonicalize External Space
   --- SX_PT (Skipped TA=0 IT=0): ||X|| =      0.002908687 Max(X)(23,2) =      0.000950274 
   --- SFit(Active Orbitals)

MACRO-ITERATION   4: 
   --- Inactive Energy E0 = -78.14797706 Eh
CI-ITERATION   0: 
   -79.055523773   0.000000000000 (    0.00)
   CI-PROBLEM SOLVED
   DENSITIES MADE
CI-ITERATION   0: 
   -79.060093518   0.000000000000 (    0.00)
   CI-PROBLEM SOLVED
   DENSITIES MADE
   E(CAS)=   -79.057808646 Eh DE=   -3.324395e-05
[...]
 --------------------
   --- Canonicalize Internal Space
   --- Canonicalize External Space

     D1, D2 Build      ... done in        0.0 sec
     D3 Build          ... CI space truncated: 3 -> 2 CFGs 
                       ... RI space truncated: 3 -> 3 CFGs 
                       ... 
                       ... correcting norm (1.000000e+00) 
                       ... done in        0.0 sec
     Hole densities    ... done in        0.0 sec
     Calc Fock         ... done in        0.0 sec
 CASPT2 intermediates avoiding 4-th order density matrix   ...

     Class VIJAB       ... done in        0.0 sec
     Class ITAB        ... Skipped =         0 of        27648 LowestEV= 7.966371e-02 ... done in        0.0 sec 
     Class TUAB        ...  ERROR! All eigenvalues are <= 0 !!
Skipped =      6912 of         9216 LowestEV= 2.258446e-01 ... done in        0.0 sec 
     Class IJTA        ... Skipped =         0 of         3456 LowestEV=-1.242353e-01 ... done in        0.0 sec 
     Class IJTU        ...  ERROR! All eigenvalues are <= 0 !!
Skipped =        63 of           84 LowestEV= 0.000000e+00 ... done in        0.0 sec 
     Class ITUA/ITAU   ... Skipped =      1152 of         2304 LowestEV=-6.651721e-02 ... done in        0.0 sec 
     Class TUVA        ... CI space truncated: 3 -> 2 CFGs 
                       ... RI space truncated: 3 -> 3 CFGs 
                       ... 
                       ... correcting norm (1.000000e+00) 
                       ... Skipped =       288 of          384 LowestEV= 7.966371e-02 ... done in        0.0 sec 
     Class ITUV        ... CI space truncated: 3 -> 2 CFGs 
                       ... RI space truncated: 3 -> 3 CFGs 
                       ... 
                       ... correcting norm (1.000000e+00) 
                       ... Skipped =         6 of           48 LowestEV=-1.242353e-01 ... done in        0.0 sec 

-----------------------------------
 CASPT2-D Energy =     -0.269998150
-----------------------------------

Class V0_ijab: dE=     -0.185348171
Class Vm1_iab: dE=     -0.058403502
Class Vm2_ab : dE=     -0.000256926
Class V1_ija : dE=     -0.009922754
Class V2_ij  : dE=     -0.000129326
Class V0_ia  : dE=     -0.015871438
Class Vm1_a  : dE=     -0.000051305
Class V1_i   : dE=     -0.000014729


smallest energy denominator IJAB =      1.510419926
smallest energy denominator ITAB =      1.022507660
smallest energy denominator IJTA =      1.198550652
smallest energy denominator TUAB =      0.601112599
smallest energy denominator IJTU =      0.953198583
smallest energy denominator ITAU =      0.688692758
smallest energy denominator TUVA =      0.267297697
smallest energy denominator ITUV =      0.443340689

 Iter           EPT2     EHylleraas  residual norm    Time
    1    -0.26999815    -0.26974727     0.01318141     0.0
    2    -0.26974727    -0.26984628     0.00084217     0.0
    3    -0.26984573    -0.26984672     0.00005699     0.0
    4    -0.26984664    -0.26984672     0.00000299     0.0
    5    -0.26984672    -0.26984672     0.00000023     0.0

 CASPT2 calculation converged in 5 iterations 


 Reference Weight =      0.914120970

 ===============================================================
                       CASPT2 Results  
 ===============================================================
   *********************
    MULT 3, ROOT 0 
   *********************

  Class V0_ijab :	 dE = -0.185315636759 
  Class Vm1_iab :	 dE = -0.059696386506 
  Class Vm2_ab  :	 dE = -0.000110861134 
  Class V1_ija  :	 dE = -0.009844560659 
  Class V2_ij   :	 dE = -0.000012821567 
  Class V0_ia   :	 dE = -0.014185499117 
  Class Vm1_a   :	 dE = -0.000052612730 
  Class V1_i    :	 dE = -0.000016853429 

 --------------------------------------------------------------- 
 	 Total Energy Correction : dE = -0.26923523189939
 --------------------------------------------------------------- 
 	 Reference  Energy       : E0 = -79.05552444050403
 	 Reference Weight        : W0 = 0.91495062373630
 --------------------------------------------------------------- 
 	 Total Energy (E0+dE)    : E  = -79.32475967240342
 --------------------------------------------------------------- 

   *********************
    MULT 1, ROOT 0 
   *********************

  Class V0_ijab :	 dE = -0.185315035925 
  Class Vm1_iab :	 dE = -0.058364372633 
  Class Vm2_ab  :	 dE = -0.000254945051 
  Class V1_ija  :	 dE = -0.009893765572 
  Class V2_ij   :	 dE = -0.000131054518 
  Class V0_ia   :	 dE = -0.015820367394 
  Class Vm1_a   :	 dE = -0.000049336256 
  Class V1_i    :	 dE = -0.000017846891 

 --------------------------------------------------------------- 
 	 Total Energy Correction : dE = -0.26984672423909
 --------------------------------------------------------------- 
 	 Reference  Energy       : E0 = -79.06009336526290
 	 Reference Weight        : W0 = 0.91412096976691
 --------------------------------------------------------------- 
 	 Total Energy (E0+dE)    : E  = -79.32994008950199
 --------------------------------------------------------------- 

-----------------------
 CASPT2 TOTAL ENERGIES
-----------------------
# This can be used as input for the MRCI SOC block to replace
# the diagonal energies within the QDPT treatment. 
# Note that multiplicty blocks must be ordered in decending order e.g. mult 5,3,1! 

STATE   ROOT MULT  Energy/a.u.   MRCI SOC BLOCK INPUT (Eh)
   0:    0    3  -79.324760    EDIAG[0]    -79.324759672
   1:    0    1  -79.329940    EDIAG[1]    -79.329940090

-----------------------------
 CASPT2 TRANSITION ENERGIES
------------------------------

LOWEST ROOT (ROOT 0, MULT 1) =    -79.329940090 Eh -2158.677 eV

STATE ROOT MULT  DE/a.u.     DE/eV    DE/cm**-1
   1:   0    3   0.005180     0.141   1137.0

--------------------------------------------
 CASPT2 CORRECTION TO THE TRANSITION ENERGY
--------------------------------------------
STATE  ROOT MULT DE/a.u. DE/eV 	DE/cm**-1
   1:    0    3   0.000611      0.017    134.2


--------------
TIMINGS CASPT2
--------------

Sum of individual times        ...        1.0 sec (100.0%)

   Integraltransformation      ...        0.7 sec ( 66.1%)
   Building Fock and alike     ...        0.1 sec (  8.4%)
   Building D2,D1              ...        0.0 sec (  0.0%)
   Building D3                 ...        0.0 sec (  0.0%)
   Building D4                 ...        0.0 sec (  0.0%)
   All densities               ...        0.0 sec (  0.2%)
   Hole Densities              ...        0.0 sec (  0.0%)
   Re-Canonicalization         ...        0.1 sec (  9.8%)
   Iterations                  ...        0.2 sec ( 15.0%)
   Classes Vijab               ...        0.0 sec (  0.0%)
   Class Viab                  ...        0.0 sec (  0.1%)
   Class Vab                   ...        0.0 sec (  0.1%)
   Class Vija                  ...        0.0 sec (  0.1%)
   Class Vij                   ...        0.0 sec (  0.1%)
   Class Via                   ...        0.0 sec (  0.0%)
   Class Va                    ...        0.0 sec (  0.1%)
   Class Vi                    ...        0.0 sec (  0.0%)
   All Classes                 ...        0.2 sec ( 15.5%)

-------------------------------------------------------------
 Forming the transition densities       ... done in 0.0 sec
-------------------------------------------------------------

--------------
CASSCF TIMINGS
--------------

Total time                       ...        2.1 sec
Sum of individual times          ...        2.1 sec ( 97.2%)

Calculation of AO operators
   F(Core) operator              ...        0.2 sec ( 11.2%)
   G(Act) operator               ...        0.2 sec ( 10.2%)
Calculation of MO transformed quantities
   J(MO) operators               ...        0.5 sec ( 25.3%)
   AO->MO one electron integrals ...        0.0 sec (  0.1%)
Configuration interaction steps
   CI-setup phase                ...        0.0 sec (  0.3%)
   CI-solution phase             ...        0.0 sec (  0.9%)
   Generation of densities       ...        0.0 sec (  0.0%)
Orbital improvement steps
   Orbital gradient              ...        0.0 sec (  0.0%)
   O(1) converger                ...        0.0 sec (  0.1%)
CPCM steps
   Total CPCM time               ...        0.0 sec (  0.0%)
PT2 
   CASPT2 time                   ...        1.0 sec ( 49.1%)
Properties                       ...        0.0 sec (  0.0%)
   SOC integral calculation      ...        0.0 sec (  0.0%)
   SSC RMEs (incl. integrals)    ...        0.0 sec (  0.0%)
   SOC RMEs                      ...        0.0 sec (  0.0%)

Maximum memory used throughout the entire CASSCF-calculation: 39.5 MB

------------------------------------------------------------------------------
                         ORCA PROPERTY INTEGRAL CALCULATIONS
------------------------------------------------------------------------------

GBWName                                   ... d3h.gbw
Number of atoms                           ...      8
Number of basis functions                 ...     58
Max core memory                           ...   4096 MB

Dipole integrals                          ... YES
Quadrupole integrals                      ...  NO
Linear momentum integrals                 ...  NO
Angular momentum integrals                ... YES
Higher moments length integrals           ...  NO
Higher moments velocity integrals         ...  NO
Kinetic energy integrals                  ...  NO
GIAO right hand sides                     ...  NO
GIAO dipole derivative integrals          ...  NO
SOC integrals                             ...  NO
EPR diamagnetic integrals (GIAO)          ...  NO
EPR gauge integrals                       ...  NO
Field gradient integrals                  ...  NO (   0 nuclei)
Spin-dipole/Fermi contact integrals       ...  NO (   0 nuclei)
Contact density integrals                 ...  NO (   0 nuclei)
Nucleus-orbit integrals                   ...  NO (   0 nuclei)
Geometric perturbations                   ...  NO (   8 nuclei)

Choice of electric origin   ... Center of mass
Position of electric origin ... (  0.0000, -0.0000,  0.0000) 
Choice of magnetic origin   ... GIAO
Position of magnetic origin ... (  0.0000,  0.0000,  0.0000) 

Calculating integrals                     ... Electric Dipole (Length)     done (  0.0 sec)
Calculating integrals                     ... Angular Momentum  (ElOri)    done (  0.0 sec)

Property integrals calculated in   0.0 sec

Maximum memory used throughout the entire PROPINT-calculation: 4.3 MB
-------------------------------------------------------------------------------
                              ORCA-CASSCF
-------------------------------------------------------------------------------

Setting up the integral package     ... SharkInputFile = d3h.SHARKINP.tmpdone

PROPERTIES-SETTINGS:
  QDPT diagonal energies            ... CASPT2 energies 


==========================================
CASSCF UV, CD spectra and dipole moments
==========================================


=====================================================================
CASSCF (CASPT2 diagonal energies) UV, CD spectra and dipole moments
=====================================================================

--------------
CASSCF TIMINGS
--------------

Total time                       ...        0.0 sec
Sum of individual times          ...        0.0 sec ( 93.1%)

Calculation of AO operators
Calculation of MO transformed quantities
Configuration interaction steps
   CI-setup phase                ...        0.0 sec ( 93.1%)
Orbital improvement steps

Maximum memory used throughout the entire CASSCF-calculation: 26.1 MB

-------------------------   --------------------
FINAL SINGLE POINT ENERGY       -79.327349880953
-------------------------   --------------------


------------------------------------------------------------------------------
                              ORCA PROPERTY CALCULATIONS
------------------------------------------------------------------------------

GBWName                                 ... d3h.gbw
Number of atoms                         ...      8
Number of basis functions               ...     58
Max core memory                         ...   4096 MB

Electric properties:
Dipole moment                           ... YES
Quadrupole moment                       ...  NO
Static polarizability (Dipole/Dipole)   ...  NO
Static polarizability (Dipole/Quad.)    ...  NO
Static polarizability (Quad./Quad.)     ...  NO
Static polarizability (Velocity)        ...  NO
Static hyperpolarizability              ...  NO

Atomic electric properties:
Dipole moment                           ...  NO
Quadrupole moment                       ...  NO
Static polarizability                   ...  NO

Choice of electric origin               ... Center of mass
Position of electric origin             ...     0.000000    -0.000000     0.000000

General magnetic properties:
Magnetizability                         ...  NO

EPR properties:
g-Tensor (aka g-matrix)                 ...  NO
Zero-Field splitting spin-orbit         ...  NO
Zero-field splitting spin-spin          ...  NO
Hyperfine couplings                     ...  NO (   0 nuclei)
Quadrupole couplings                    ...  NO (   0 nuclei)
Contact density                         ...  NO (   0 nuclei)

NMR properties:
Chemical shifts                         ...  NO (   0 nuclei)
Spin-rotation constants                 ...  NO (   0 nuclei)
Spin-spin couplings                     ...  NO (   0 nuclei,    0 pairs)

Choice of magnetic origin               ... GIAO
Position of magnetic origin             ...     0.000000     0.000000     0.000000

Properties with geometric perturbations:
SCF Hessian                             ...  NO
IR spectrum                             ...  NO
VCD spectrum                            ...  NO
X-ray spectroscopy properties:
SCF XES/XAS/RIXS spectra                ...  NO

SCF SOC stabilization energy            ...  NO
Diagonal Born-Oppenheimer correction    ...  NO

-------------
DIPOLE MOMENT
-------------

Method             : CASSCF/ALL STATES AVERAGE
Type of density    : Electron Density
Level              : Unrelaxed density
State              :  -1
Multiplicity       :  -1
Irrep              :   0
Energy             :   -79.0578089028834654 Eh
Basis              : AO
                                X                 Y                 Z
Electronic contribution:     -0.000020281      -0.000000000       0.000000000
Nuclear contribution   :      0.000000000       0.000000000       0.000000000
                        -----------------------------------------
Total Dipole Moment    :     -0.000020281      -0.000000000       0.000000000
                        -----------------------------------------
Magnitude (a.u.)       :      0.000020281
Magnitude (Debye)      :      0.000051549



--------------------
Rotational spectrum 
--------------------
 
Rotational constants in cm-1:             2.378825             0.176275             0.176274 
Rotational constants in MHz :         71315.383142          5284.602327          5284.572042 

Dipole components along the rotational axes: 
x,y,z [a.u.] :     0.000000     0.000020     0.000000 
x,y,z [Debye]:     0.000000     0.000052     0.000000 

 

Dipole moment calculation done in   0.0 sec 

Maximum memory used throughout the entire PROP-calculation: 2.1 MB

--------------------------------
SUGGESTED CITATIONS FOR THIS RUN
--------------------------------

Below you find a list of papers that are relevant to this ORCA run
We neither can nor want to force you to cite these papers, but we appreciate if you do
You receive ORCA, which is the product of decades of hard work by many enthusiastic individuals, for free
The only thing we kindly ask in return is that you cite our papers,
We deeply appreciate it, if you show your appreciation for ORCA by not just citing the generic ORCA reference.

Please note that relegating all ORCA citations to the supporting information does *not* help us.
SI sections are not indexed - citations you put there will not count into any citation statistics
But we need these citations in order to attract the funding resources that allow us to do what we are doing

Therefore, if you are a happy ORCA user, please consider citing a few of the papers listed below in the main body of your paper

In addition to the list printed below, the program has created the file d3h.bibtex that contains the list in bibtex format
You can import this file easily into all common literature databanks and citation aid programs


List of essential papers. We consider these as the minimum necessary citations

  1. Neese, F.
     Software update: the ORCA program system, version 6.0
     WIRES Comput. Molec. Sci. 2025 15(1), e70019
     doi.org/10.1002/wcms.7019

List of papers to cite with high priority. The work reported in these papers was absolutely
necessary for this run to complete.
Our perspective: the developers of density functionals and basis sets usually get cited in chemistry papers
Good! But without the algorithms to do something with them, the functionals or basis sets would not do anything.
Hence, in our opinion, the algorithm design and method developments papers are equally worthy of getting cited

  1. Kollmar, C.; Sivalingam, K.; Helmich-Paris, B.; Angeli, C.; Neese, F.
     A perturbation-based super-CI approach for the orbital optimization of a CASSCF wave function
     J. Comput. Chem. 2019 40 , 1463-1470
     doi.org/10.1002/jcc.25801
  2. Kollmar, C.; Sivalingam, K.; Guo, Y.; Neese, F.
     An efficient implementation of the NEVPT2 and CASPT2 methods avoiding higher-order density matrices
     J. Chem. Phys. 2021 155(23), 234104
     doi.org/10.1063/5.0072129
  3. Neese, F.
     The SHARK Integral Generation and Digestion System
     J. Comp. Chem. 2022 44(3), 381
     doi.org/10.1002/jcc.26942
  4. Ugandi, M.; Roemelt, M.
     A recursive formulation of one-electron coupling coefficients for spin-adapted configuration interaction calculations featuring many unpaired electrons
     Int. J. Quantum Chem. 2023 123 , e27045
     doi.org/10.1002/qua.27045

List of suggested additional citations. These are papers that are important in the 'surrounding' of 
of this run, or papers that preceded the highly important papers. If you like your results we are grateful for a citation.

  1. Neese, F.
     The ORCA program system
     WIRES Comput. Molec. Sci. 2012 2(1), 73-78
     doi.org/10.1002/wcms.81
  2. Neese, F.
     Software update: the ORCA program system, version 4.0
     WIRES Comput. Molec. Sci. 2018 8(1), 1-6
     doi.org/10.1002/wcms.1327
  3. Kollmar, C.; Sivalingam, K.; Neese, F.
     An alternative choice of the zeroth-order Hamiltonian in CASPT2 theory
     J. Chem. Phys. 2020 152(21), 214110
     doi.org/10.1063/5.0010019
  4. Neese, F.; Wennmohs, F.; Becker, U.; Riplinger, C.
     The ORCA quantum chemistry program package
     J. Chem. Phys. 2020 152(22), 224108
     doi.org/10.1063/5.0004608
  5. Neese, F.
     Software update: The ORCA program system—Version 5.0
     WIRES Comput. Molec. Sci. 2022 12(1), e1606
     doi.org/10.1002/wcms.1606

List of optional additional citations

  1. Neese, F.
     Approximate second-order SCF convergence for spin unrestricted wavefunctions
     Chem. Phys. Lett. 2000 325(1-3), 93-98
     doi.org/10.1016/s0009-2614(00)00662-x

Timings for individual modules:

Sum of individual times          ...        2.450 sec (=   0.041 min)
Startup calculation              ...        0.130 sec (=   0.002 min)   5.3 %
SCF iterations                   ...        0.028 sec (=   0.000 min)   1.1 %
CASSCF iterations                ...        2.221 sec (=   0.037 min)  90.6 %
Property integrals               ...        0.034 sec (=   0.001 min)   1.4 %
Property calculations            ...        0.037 sec (=   0.001 min)   1.5 %
                             ****ORCA TERMINATED NORMALLY****
TOTAL RUN TIME: 0 days 0 hours 0 minutes 2 seconds 543 msec
