[Molden Format]
[Title]
 Molden file created by orca_2mkl for BaseName=ch3

[Atoms] AU
C    1   6        -11.9403857553         5.8929030788        -0.3784554528 
H    2   1        -10.0116556739         6.3073578145         0.1630266736 
H    3   1        -12.9047507959         4.2788312960         0.4276261268 
H    4   1        -12.9047507959         7.0925012286        -1.7260191589 
[GTO]
  1 0
s   5 1.0 
     1238.4016938000         0.8208956682
      186.2900499200         1.4766449896
       42.2511763460         2.1526124058
       11.6765579320         2.1081722461
        3.5930506482         0.8290999933
s   1 1.0 
        0.4024514736         0.3601183351
s   1 1.0 
        0.1309018267         0.1551027052
p   3 1.0 
        9.4680970621         1.3467645142
        2.0103545142         1.0678070931
        0.5477100471         0.5108735714
p   1 1.0 
        0.1526861379         0.1360471976
d   1 1.0 
        0.8000000000         1.9292013661

  2 0
s   3 1.0 
       13.0107010000         0.1634903809
        1.9622572000         0.2773515510
        0.4445379600         0.3157501452
s   1 1.0 
        0.1219496200         0.1470772262
p   1 1.0 
        0.8000000000         1.0784563492

  3 0
s   3 1.0 
       13.0107010000         0.1634903809
        1.9622572000         0.2773515510
        0.4445379600         0.3157501452
s   1 1.0 
        0.1219496200         0.1470772262
p   1 1.0 
        0.8000000000         1.0784563492

  4 0
s   3 1.0 
       13.0107010000         0.1634903809
        1.9622572000         0.2773515510
        0.4445379600         0.3157501452
s   1 1.0 
        0.1219496200         0.1470772262
p   1 1.0 
        0.8000000000         1.0784563492

[5D]
[7F]
[9G]
[MO]
 Sym=     1a
 Ene= -1.01942867181451E+01
 Spin= Alpha
 Occup= 1.000000
  1      -0.988000268139
  2      -0.049371944942
  3       0.032201617906
  4      -0.000000901816
  5      -0.000001423660
  6      -0.000001107276
  7      -0.000005121753
  8      -0.000001680265
  9       0.000003390955
 10       0.000865525722
 11      -0.001098194479
 12       0.001885532060
 13      -0.000479564446
 14      -0.000838783374
 15       0.004594791472
 16      -0.007431475858
 17      -0.002842320112
 18      -0.000610110807
 19      -0.000799324723
 20       0.004590295232
 21      -0.007437992127
 22       0.001421224414
 23       0.002376037746
 24      -0.001186667945
 25       0.004593220915
 26      -0.007434583303
 27       0.001419787822
 28      -0.001768038004
 29       0.001985119374
 Sym=     1a
 Ene= -6.73145083553064E-01
 Spin= Alpha
 Occup= 1.000000
  1      -0.260708421621
  2       0.513427360943
  3       0.208917744912
  4      -0.000004269324
  5      -0.000004745719
  6      -0.000003234922
  7      -0.000028173531
  8      -0.000010176830
  9       0.000020436313
 10       0.001984837347
 11      -0.002521053373
 12       0.004325168856
 13      -0.001096920445
 14      -0.001925640001
 15       0.188915929113
 16       0.025692455660
 17      -0.021452852681
 18      -0.004608537866
 19      -0.006025041465
 20       0.188905602400
 21       0.025657082371
 22       0.010726398693
 23       0.017947515943
 24      -0.008964428613
 25       0.188914649764
 26       0.025673856801
 27       0.010726215734
 28      -0.013342084890
 29       0.014986657957
 Sym=     1a
 Ene= -4.15866602480563E-01
 Spin= Alpha
 Occup= 1.000000
  1       0.000000960936
  2      -0.000000379952
  3       0.000010022207
  4      -0.411379799820
  5       0.014418793928
  6      -0.194173522662
  7      -0.149399783569
  8       0.005263849641
  9      -0.070539418411
 10       0.006141491310
 11      -0.001426209196
 12      -0.010091707750
 13      -0.012409402691
 14      -0.007418937837
 15      -0.351615816375
 16      -0.138272640859
 17       0.010859168194
 18       0.005132680708
 19       0.000906180879
 20       0.085445315951
 21       0.033634930413
 22      -0.008523415954
 23       0.004879498590
 24      -0.007530588599
 25       0.266160767871
 26       0.104624100321
 27      -0.002856139262
 28      -0.009994471549
 29       0.006379125893
 Sym=     1a
 Ene= -4.15858693136527E-01
 Spin= Alpha
 Occup= 1.000000
  1       0.000003310180
  2      -0.000009277482
  3       0.000008596865
  4      -0.122065093356
  5      -0.372720064891
  6       0.230930369737
  7      -0.044344883699
  8      -0.135343136417
  9       0.083842921269
 10      -0.003621915123
 11      -0.011617392876
 12      -0.001294698881
 13      -0.006827848533
 14       0.012419599970
 15      -0.104343145251
 16      -0.041002035824
 17       0.003221855312
 18      -0.008747204654
 19       0.008129870261
 20       0.356676365822
 21       0.140258287037
 22       0.007867404221
 23       0.008576834908
 24      -0.003063062890
 25      -0.252346748363
 26      -0.099257232250
 27      -0.011243247223
 28      -0.000304311829
 29      -0.004772915982
 Sym=     1a
 Ene= -2.28914478476566E-01
 Spin= Alpha
 Occup= 1.000000
  1      -0.000003455158
  2       0.000004613349
  3      -0.000005133162
  4       0.204793162108
  5      -0.352071002954
  6      -0.459987538844
  7       0.169714615917
  8      -0.291769253389
  9      -0.381194514377
 10       0.000001619495
 11       0.000002878866
 12       0.000000197584
 13      -0.000004520569
 14      -0.000002803585
 15      -0.000002123689
 16      -0.000001116665
 17       0.006155355054
 18      -0.010582891612
 19      -0.013827064185
 20      -0.000000191940
 21       0.000010913673
 22       0.006155458111
 23      -0.010581472472
 24      -0.013827211714
 25       0.000015799799
 26      -0.000002854903
 27       0.006155663803
 28      -0.010582284300
 29      -0.013827372692
 Sym=     1a
 Ene= 8.06185477055786E-02
 Spin= Alpha
 Occup= 0.000000
  1       0.158788797918
  2      -0.319148870975
  3      -2.442668425555
  4       0.000002966724
  5       0.000018996913
  6       0.000018593436
  7       0.000057807442
  8       0.000029671091
  9      -0.000024420274
 10      -0.004315877683
 11       0.005476327911
 12      -0.009407528651
 13       0.002382299840
 14       0.004188240604
 15       0.069627181445
 16       1.202899911483
 17       0.007672329592
 18       0.001646850814
 19       0.002156748805
 20       0.069651126093
 21       1.203031171444
 22      -0.003837990813
 23      -0.006416811607
 24       0.003204718404
 25       0.069635249247
 26       1.202978501341
 27      -0.003833524228
 28       0.004774133117
 29      -0.005359843937
 Sym=     1a
 Ene= 1.45799645660241E-01
 Spin= Alpha
 Occup= 0.000000
  1       0.000003123899
  2       0.000003495709
  3      -0.000071200439
  4      -0.285809874626
  5       0.116625535389
  6      -0.216514355571
  7      -0.974585347194
  8       0.397712718975
  9      -0.738332476320
 10      -0.003570537817
 11      -0.001337362703
 12       0.004611016798
 13       0.004764356358
 14       0.005719265677
 15       0.063099180796
 16       1.599363413699
 17       0.003387621213
 18       0.006336938611
 19      -0.003341889284
 20       0.008873956823
 21       0.224790188843
 22      -0.009875427936
 23       0.002216629345
 24      -0.006093789035
 25      -0.071966645136
 26      -1.824069771316
 27      -0.001940415812
 28      -0.005116857813
 29       0.003053451543
 Sym=     1a
 Ene= 1.45801467824461E-01
 Spin= Alpha
 Occup= 0.000000
  1      -0.000005328093
  2       0.000001367550
  3       0.000109487169
  4       0.211392081046
  5       0.286151678480
  6      -0.124914072708
  7       0.720848530133
  8       0.975742763253
  9      -0.425902177803
 10      -0.000665431073
 11      -0.005815773395
 12      -0.002377374896
 13      -0.005434449388
 14       0.004666645175
 15      -0.046675917340
 16      -1.182945020966
 17      -0.002506761328
 18       0.007047982984
 19      -0.006508663830
 20       0.077983101194
 21       1.976452672918
 22      -0.000998520444
 23      -0.003800837925
 24       0.002464326082
 25      -0.031302666391
 26      -0.793651673028
 27       0.009735317296
 28       0.005190660350
 29       0.000361086440
 Sym=     1a
 Ene= 4.44504731621330E-01
 Spin= Alpha
 Occup= 0.000000
  1       0.000037206009
  2      -0.000464607730
  3       0.001411646257
  4      -0.095268983713
  5      -0.243307870955
  6       0.143971016967
  7       0.475232972192
  8       1.213905033262
  9      -0.717735653187
 10      -0.015379511957
 11      -0.055093972049
 12      -0.008774438318
 13      -0.035486426586
 14       0.056465712415
 15      -0.279856956223
 16      -0.072915385206
 17       0.002536333051
 18       0.059875258801
 19      -0.044698415855
 20       0.811956286386
 21       0.211170483278
 22      -0.007764337922
 23       0.009328216079
 24      -0.010592781455
 25      -0.532938221344
 26      -0.138924976649
 27       0.047099233854
 28       0.037749123268
 29      -0.007920498207
 Sym=     1a
 Ene= 4.44526275995582E-01
 Spin= Alpha
 Occup= 0.000000
  1      -0.000008214545
  2       0.000105627677
  3      -0.000321573534
  4       0.264649086712
  5      -0.023363080283
  6       0.135607941649
  7      -1.320061819024
  8       0.116583584255
  9      -0.676853066093
 10      -0.029889377079
 11       0.003591308326
 12       0.047154748672
 13       0.056605538576
 14       0.038267999144
 15       0.776565553682
 16       0.202096034367
 17      -0.007080709473
 18       0.019845796419
 19      -0.018348348179
 20      -0.146047802663
 21      -0.038052438052
 22      -0.064494437582
 23       0.016195555656
 24      -0.041117330707
 25      -0.630324106202
 26      -0.163892343534
 27      -0.044723377749
 28      -0.025770073068
 29      -0.000185777131
 Sym=     1a
 Ene= 4.69444776421530E-01
 Spin= Alpha
 Occup= 0.000000
  1      -0.076852913499
  2       0.943088879305
  3      -2.815217011885
  4       0.000703953985
  5      -0.001406970404
  6      -0.001656497890
  7      -0.000499641170
  8       0.001931504211
  9       0.001605820683
 10      -0.038526283158
 11       0.048834914122
 12      -0.084022086066
 13       0.021243821167
 14       0.037430305048
 15       0.631229385051
 16       0.392709059199
 17       0.025658950792
 18       0.005506535193
 19       0.007124690599
 20       0.631843133047
 21       0.392791457509
 22      -0.012788901484
 23      -0.021497757920
 24       0.010672138622
 25       0.631266713215
 26       0.392704991941
 27      -0.012772261917
 28       0.015926939752
 29      -0.017968868081
 Sym=     1a
 Ene= 4.79593718710272E-01
 Spin= Alpha
 Occup= 0.000000
  1      -0.000143043429
  2       0.001919040845
  3      -0.005814920331
  4      -0.331894624199
  5       0.570599371812
  6       0.745469050792
  7       0.359190988076
  8      -0.617775607071
  9      -0.806950105064
 10      -0.000095811322
 11       0.000125611861
 12      -0.000197883257
 13       0.000065073330
 14       0.000095131103
 15       0.001615228969
 16       0.000635890524
 17      -0.009375309664
 18       0.016251780965
 19       0.021243773811
 20       0.001374963320
 21       0.000722494700
 22      -0.009486305205
 23       0.016182431731
 24       0.021240602636
 25       0.001528947701
 26       0.000680912819
 27      -0.009491259405
 28       0.016274726996
 29       0.021172388141
 Sym=     1a
 Ene= 6.38330462633977E-01
 Spin= Alpha
 Occup= 0.000000
  1       0.299564548510
  2      -1.816347908501
  3       4.171632127620
  4       0.000022032881
  5      -0.000089305100
  6      -0.000104201334
  7      -0.000022887189
  8       0.000087839102
  9       0.000117198505
 10      -0.036129251511
 11       0.045825083622
 12      -0.078752653111
 13       0.019948080852
 14       0.035056725352
 15       0.426253221937
 16      -1.395647450687
 17       0.097577556972
 18       0.020955419545
 19       0.027397159150
 20       0.426200666994
 21      -1.395563909856
 22      -0.048788186009
 23      -0.081645515858
 24       0.040767138536
 25       0.426236254725
 26      -1.395606135439
 27      -0.048782714259
 28       0.060686554952
 29      -0.068170775355
 Sym=     1a
 Ene= 6.89016958563329E-01
 Spin= Alpha
 Occup= 0.000000
  1      -0.000012040408
  2       0.000077285684
  3      -0.000181248341
  4      -0.492108606260
  5      -0.717515991285
  6       0.330056290708
  7       0.862969423228
  8       1.258245998817
  9      -0.578823147875
 10       0.012589715912
 11       0.090798805274
 12       0.033818410910
 13       0.080972034015
 14      -0.075757940328
 15       0.325120074611
 16      -1.004706736548
 17       0.092185062761
 18      -0.025472342038
 19       0.060540376287
 20      -0.578034808471
 21       1.786599765053
 22       0.077912850765
 23       0.138269702219
 24      -0.071148313695
 25       0.252921161652
 26      -0.781748293500
 27      -0.086465957074
 28       0.009125513603
 29      -0.045483828169
 Sym=     1a
 Ene= 6.89027287207208E-01
 Spin= Alpha
 Occup= 0.000000
  1       0.000005589325
  2      -0.000037337321
  3       0.000092732419
  4       0.726333901603
  5      -0.258403486381
  6       0.521191871342
  7      -1.273765842093
  8       0.453138892764
  9      -0.913972722203
 10       0.054810123743
 11       0.016980527966
 12      -0.072821262047
 13      -0.077092558754
 14      -0.085447551578
 15      -0.479709347737
 16       1.482814264448
 17      -0.136046604094
 18      -0.059919914536
 19      -0.014708957778
 20      -0.041689325358
 21       0.128694588946
 22       0.061996834060
 23      -0.005335919683
 24       0.031685830521
 25       0.521406502773
 26      -1.611590427921
 27      -0.049390527239
 28       0.109175257674
 29      -0.105552651508
 Sym=     1a
 Ene= 1.19585227619586E+00
 Spin= Alpha
 Occup= 0.000000
  1      -0.000003925114
  2       0.000019854183
  3      -0.000039446635
  4      -0.000007383173
  5       0.000007150094
  6      -0.000011349697
  7       0.000009237650
  8       0.000001512191
  9       0.000002340990
 10      -0.340926664652
 11       0.095075332038
 12       0.110800215495
 13      -0.203443086275
 14      -0.110732733870
 15      -0.000010062144
 16       0.000010084860
 17      -0.004823256076
 18       0.008286398110
 19       0.010831186184
 20       0.000000449957
 21       0.000010861576
 22       0.175876555512
 23      -0.302340553900
 24      -0.394989579429
 25      -0.000021397232
 26       0.000024513018
 27      -0.171044548565
 28       0.294048011273
 29       0.384177867277
 Sym=     1a
 Ene= 1.19585467994737E+00
 Spin= Alpha
 Occup= 0.000000
  1      -0.000001394438
  2       0.000010131947
  3      -0.000025937087
  4      -0.000007695064
  5       0.000005481239
  6      -0.000002754203
  7       0.000011379762
  8      -0.000004339820
  9       0.000003882250
 10      -0.158324455435
 11      -0.267851302782
 12      -0.130025397178
 13       0.183335051874
 14      -0.209436242114
 15       0.000006641977
 16      -0.000007108451
 17       0.200290839164
 18      -0.344333844647
 19      -0.449855818337
 20      -0.000003112318
 21       0.000013376950
 22      -0.095964998530
 23       0.164982903988
 24       0.215549464073
 25      -0.000004301065
 26       0.000014968758
 27      -0.104312614047
 28       0.179344813646
 29       0.234306430989
 Sym=     1a
 Ene= 1.48024001772906E+00
 Spin= Alpha
 Occup= 0.000000
  1       0.000007303990
  2      -0.000031028717
  3       0.000083708964
  4      -0.000000427221
  5       0.000000250538
  6      -0.000000233047
  7       0.000016528579
  8       0.000009838344
  9      -0.000001201289
 10       0.000000966162
 11       0.000003886862
 12      -0.000002490955
 13       0.000008011720
 14       0.000003177345
 15      -0.000016309860
 16      -0.000023752204
 17       0.000000540047
 18       0.467837478777
 19      -0.358097423719
 20       0.000001221718
 21      -0.000012847642
 22       0.481036568087
 23      -0.130551292008
 24       0.314104915485
 25      -0.000003304243
 26      -0.000020586523
 27      -0.481064020356
 28      -0.337297435092
 29       0.043989270592
 Sym=     1a
 Ene= 1.60524631858771E+00
 Spin= Alpha
 Occup= 0.000000
  1      -0.000004136182
  2       0.000015674598
  3      -0.000031728065
  4      -0.063474234804
  5      -0.118836293651
  6       0.062701701275
  7       0.463269936355
  8       0.867365698093
  9      -0.457646560931
 10       0.042550531873
 11       0.202743202695
 12       0.053733626784
 13       0.155426207698
 14      -0.188754252805
 15      -0.225994394599
 16      -0.160340305024
 17      -0.142067935948
 18      -0.493047761801
 19       0.314134334097
 20       0.498149742195
 21       0.353427049579
 22      -0.128083786829
 23      -0.269769033888
 24       0.149479686642
 25      -0.272147191330
 26      -0.193066217035
 27      -0.361528257875
 28      -0.419871393972
 29       0.160407734914
 Sym=     1a
 Ene= 1.60525280456398E+00
 Spin= Alpha
 Occup= 0.000000
  1      -0.000000891034
  2       0.000002641252
  3      -0.000009436861
  4      -0.124909484381
  5       0.026616124161
  6      -0.075999134544
  7       0.911656624053
  8      -0.194302675802
  9       0.554612039852
 10      -0.116128965993
 11      -0.012066640704
 12       0.168161528296
 13       0.190444421159
 14       0.165555717598
 15      -0.444736629007
 16      -0.315536446993
 17      -0.279555014635
 18       0.174952463643
 19      -0.258379811203
 20       0.026646232198
 21       0.018891875917
 22      -0.541073413552
 23       0.130557078995
 24      -0.340816084332
 25       0.418089053404
 26       0.296653113060
 27      -0.422423881770
 28      -0.040574623084
 29      -0.156977921406
 Sym=     1a
 Ene= 1.73291419966448E+00
 Spin= Alpha
 Occup= 0.000000
  1       0.000000461159
  2       0.000007235317
  3      -0.000005278532
  4      -0.080353286102
  5       0.138132607719
  6       0.180464553029
  7      -0.134038726094
  8       0.230464046190
  9       0.301110612552
 10      -0.000001911510
 11      -0.000002671567
 12       0.000014062165
 13       0.000001231407
 14       0.000001658548
 15      -0.000006542494
 16      -0.000005898373
 17       0.218033724423
 18      -0.374842855682
 19      -0.489726872506
 20       0.000001484813
 21       0.000000096705
 22       0.218026906091
 23      -0.374851787069
 24      -0.489728851268
 25       0.000011069428
 26       0.000004538226
 27       0.218028516365
 28      -0.374844235908
 29      -0.489731122220
 Sym=     1a
 Ene= 1.82290680237330E+00
 Spin= Alpha
 Occup= 0.000000
  1       0.080873137942
  2      -0.726783352365
  3       0.600715237262
  4       0.000004218524
  5       0.000002447874
  6      -0.000002982189
  7      -0.000013676909
  8       0.000007625066
  9       0.000003524313
 10      -0.259117361070
 11       0.328637625993
 12      -0.564964305331
 13       0.143040164466
 14       0.251528284086
 15      -0.154610228759
 16      -0.004390336299
 17      -0.332438166313
 18      -0.071444856185
 19      -0.093335143092
 20      -0.154615698751
 21      -0.004391581940
 22       0.166218093129
 23       0.278229561931
 24      -0.138917412825
 25      -0.154617077591
 26      -0.004399221523
 27       0.166239761481
 28      -0.206797851480
 29       0.232231711830
 Sym=     1a
 Ene= 2.21745620965384E+00
 Spin= Alpha
 Occup= 0.000000
  1      -0.000010683763
  2       0.000073550938
  3      -0.000041194326
  4      -0.000026052809
  5      -0.000038253332
  6       0.000024241737
  7      -0.000033341836
  8      -0.000058032898
  9       0.000027645952
 10      -0.493417511092
 11       0.504788086378
 12       0.373994189169
 13      -0.621391557648
 14       0.025668027681
 15       0.000000489635
 16       0.000036432251
 17       0.118903197165
 18      -0.204357308718
 19      -0.267084405201
 20      -0.000026730874
 21      -0.000061173257
 22      -0.224719577801
 23       0.386206628711
 24       0.504686689712
 25       0.000005540051
 26       0.000037488209
 27       0.105839935450
 28      -0.181831146560
 29      -0.237603972762
 Sym=     1a
 Ene= 2.21746887950832E+00
 Spin= Alpha
 Occup= 0.000000
  1       0.000007168046
  2      -0.000048488128
  3       0.000022264204
  4       0.000072618219
  5       0.000161953710
  6      -0.000093486180
  7       0.000040592677
  8       0.000174613924
  9      -0.000112958160
 10       0.716897225746
 11       0.422130460306
 12       0.128807402470
 13      -0.126175787953
 14       0.547990389034
 15      -0.000012336791
 16      -0.000056944053
 17       0.190843484460
 18      -0.328159515817
 19      -0.428405101417
 20       0.000079772255
 21       0.000195618773
 22       0.007712020136
 23      -0.012847418509
 24      -0.017068241900
 25      -0.000048063652
 26      -0.000144266017
 27      -0.198541742650
 28       0.341006930200
 29       0.445479757894
 Sym=     1a
 Ene= 2.23684640581878E+00
 Spin= Alpha
 Occup= 0.000000
  1      -0.000001499050
  2       0.000013345074
  3       0.000004488497
  4       0.531333866124
  5       0.484810635398
  6      -0.134518292464
  7       0.502527242759
  8       0.458530794710
  9      -0.127231308537
 10       0.007790224675
 11      -0.203599290065
 12      -0.130478723434
 13      -0.245248247594
 14       0.120440621814
 15      -0.217777916184
 16      -0.524055289620
 17       0.528696798018
 18      -0.233434178672
 19       0.414214368986
 20       0.265095110417
 21       0.637890832765
 22       0.127006383717
 23       0.591477469823
 24      -0.396102148719
 25      -0.047320883962
 26      -0.113845257086
 27      -0.609052656047
 28      -0.315477089661
 29      -0.029930928467
 Sym=     1a
 Ene= 2.23685009703241E+00
 Spin= Alpha
 Occup= 0.000000
  1      -0.000000326383
  2      -0.000003440717
  3       0.000003126193
  4       0.440047010482
  5      -0.352956997111
  6       0.466084060325
  7       0.416197913822
  8      -0.333814487276
  9       0.440812622491
 10       0.138796664409
 11       0.103034905589
 12      -0.149294207535
 13      -0.126849696058
 14      -0.254822189316
 15      -0.180374814875
 16      -0.434015421704
 17       0.437915732350
 18       0.513182132883
 19      -0.197931961511
 20      -0.098414656253
 21      -0.236833889329
 22      -0.644039187495
 23      -0.057619657806
 24      -0.242675538105
 25       0.278788254893
 26       0.670848270717
 27       0.244769353571
 28      -0.486556227565
 29       0.481529455374
 Sym=     1a
 Ene= 2.84736140324963E+00
 Spin= Alpha
 Occup= 0.000000
  1       0.269822978238
  2      -1.679339140078
  3      -1.091132752109
  4       0.000082133008
  5       0.000115347727
  6      -0.000047701983
  7       0.000038646099
  8       0.000052260183
  9      -0.000019454962
 10       0.354864990621
 11      -0.450014937967
 12       0.773904940999
 13      -0.195861297895
 14      -0.344639822211
 15       0.787887152201
 16       0.336237753089
 17      -0.861699399922
 18      -0.185136619565
 19      -0.241939513399
 20       0.788114465605
 21       0.336308867794
 22       0.430961970157
 23       0.721307864808
 24      -0.360217037783
 25       0.787917598302
 26       0.336248459093
 27       0.430893060342
 28      -0.535948401537
 29       0.602061992097
 Sym=     1a
 Ene= 2.91497956468119E+00
 Spin= Alpha
 Occup= 0.000000
  1       0.000006088162
  2      -0.000029120014
  3      -0.000014931405
  4      -0.911226642084
  5       0.207590146254
  6      -0.564589826329
  7      -0.375185160090
  8       0.085486694519
  9      -0.232477440632
 10       0.500009352858
 11       0.063658605983
 12      -0.717245119582
 13      -0.806753773636
 14      -0.720353687624
 15       0.937701336345
 16       0.263186950656
 17      -0.903236038271
 18      -0.079315904700
 19      -0.341433066313
 20      -0.041990758247
 21      -0.011775572264
 22      -0.273669589881
 23       0.034933290701
 24      -0.148579857587
 25      -0.895673960849
 26      -0.251395996310
 27      -0.566803813823
 28       0.441633876939
 29      -0.590398590359
 Sym=     1a
 Ene= 2.91498449272446E+00
 Spin= Alpha
 Occup= 0.000000
  1       0.000042004122
  2      -0.000258846932
  3      -0.000125286928
  4      -0.478943711258
  5      -0.870396023828
  6       0.452975318811
  7      -0.197221970814
  8      -0.358372646248
  9       0.186503561665
 10      -0.175420531362
 11      -0.867905094278
 12      -0.239998758960
 13      -0.677124723662
 14       0.798840402605
 15       0.492983275083
 16       0.138382878340
 17      -0.474872569767
 18      -0.320398780467
 19       0.033818387392
 20      -1.058378668148
 21      -0.297049074518
 22      -0.499676836439
 23      -0.855871696839
 24       0.432638073403
 25       0.565737560960
 26       0.158786386085
 27       0.058015020530
 28      -0.489321890266
 29       0.400362205559
 Sym=     1a
 Ene= -1.01795634895537E+01
 Spin=Beta
 Occup= 1.000000
  1      -0.988525007783
  2      -0.047255608251
  3       0.030387085535
  4      -0.000000940433
  5      -0.000001505344
  6      -0.000001168448
  7      -0.000005440060
  8      -0.000001795636
  9       0.000003541180
 10       0.001154666967
 11      -0.001464798091
 12       0.002515510421
 13      -0.000639025993
 14      -0.001119249623
 15       0.004552388365
 16      -0.007009428690
 17      -0.002758710200
 18      -0.000592124020
 19      -0.000775886879
 20       0.004547680388
 21      -0.007016357807
 22       0.001379420842
 23       0.002305913267
 24      -0.001151733033
 25       0.004550717602
 26      -0.007012747733
 27       0.001377962418
 28      -0.001715950496
 29       0.001926689356
 Sym=     1a
 Ene= -6.33227455181737E-01
 Spin=Beta
 Occup= 1.000000
  1       0.249485476298
  2      -0.481112753792
  3      -0.156296876106
  4       0.000003880542
  5       0.000003138232
  6       0.000003373297
  7       0.000026237723
  8       0.000008177541
  9      -0.000020483672
 10       0.005821848535
 11      -0.007379320060
 12       0.012692875350
 13      -0.003210374880
 14      -0.005651308261
 15      -0.208875981504
 16      -0.047104179263
 17       0.021116462309
 18       0.004535928152
 19       0.005930741959
 20      -0.208865946036
 21      -0.047072425102
 22      -0.010558329369
 23      -0.017666186389
 24       0.008823260167
 25      -0.208875766033
 26      -0.047086125878
 27      -0.010557163593
 28       0.013133539558
 29      -0.014751624173
 Sym=     1a
 Ene= -4.05610834562826E-01
 Spin=Beta
 Occup= 1.000000
  1      -0.000001148577
  2       0.000001840772
  3      -0.000012008598
  4       0.397038379590
  5      -0.004635615403
  6       0.180311171480
  7       0.131728335120
  8      -0.001573496636
  9       0.059852572879
 10      -0.005864975295
 11       0.001672153606
 12       0.009817374629
 13       0.012203955309
 14       0.006884246921
 15       0.370239477819
 16       0.160992226048
 17      -0.011311068834
 18      -0.005249149625
 19      -0.001017732927
 20      -0.098864692531
 21      -0.043035113398
 22       0.009275537590
 23      -0.005455014246
 24       0.008306074163
 25      -0.271365213733
 26      -0.117943269698
 27       0.003744201226
 28       0.010684759102
 29      -0.006512940272
 Sym=     1a
 Ene= -4.05602939229277E-01
 Spin=Beta
 Occup= 1.000000
  1       0.000003317768
  2      -0.000010577349
  3       0.000008274034
  4      -0.106798936153
  5      -0.357361196700
  6       0.225976402737
  7      -0.035455042575
  8      -0.118542982084
  9       0.074944758362
 10      -0.003663576264
 11      -0.011228742147
 12      -0.001003530241
 13      -0.006311239101
 14       0.012227800764
 15      -0.099599818003
 16      -0.043267004824
 17       0.003041776050
 18      -0.009833954294
 19       0.008881021678
 20       0.370435531884
 21       0.161072698081
 22       0.008539470698
 23       0.008688274011
 24      -0.002848832672
 25      -0.270847477487
 26      -0.117803133588
 27      -0.012040404686
 28      -0.000394978387
 29      -0.005058488285
 Sym=     1a
 Ene= -5.76016378533701E-02
 Spin=Beta
 Occup= 0.000000
  1      -0.000000083550
  2      -0.000010730345
  3      -0.000018305298
  4       0.169334528180
  5      -0.291113859211
  6      -0.380333325977
  7       0.203179787919
  8      -0.349298411549
  9      -0.456355531134
 10       0.000000488244
 11       0.000000973157
 12       0.000000850629
 13      -0.000002361005
 14      -0.000000287193
 15       0.000004332191
 16       0.000010045989
 17       0.008043774965
 18      -0.013829627843
 19      -0.018068312640
 20       0.000000735611
 21       0.000020651673
 22       0.008043645674
 23      -0.013828522083
 24      -0.018068070768
 25       0.000009691773
 26       0.000015552074
 27       0.008044843296
 28      -0.013829056954
 29      -0.018067858169
 Sym=     1a
 Ene= 9.14433191837305E-02
 Spin=Beta
 Occup= 0.000000
  1       0.160110853674
  2      -0.302636499192
  3      -2.504693482933
  4       0.000003391950
  5       0.000018196167
  6       0.000019110292
  7       0.000051523352
  8       0.000036374412
  9      -0.000005875359
 10       0.002826514297
 11      -0.003581829107
 12       0.006162636177
 13      -0.001558592142
 14      -0.002743974527
 15       0.042072231646
 16       1.229473092847
 17       0.008069239557
 18       0.001732186318
 19       0.002268498883
 20       0.042093026270
 21       1.229596700865
 22      -0.004036825964
 23      -0.006748897492
 24       0.003370760492
 25       0.042079208273
 26       1.229560616527
 27      -0.004031754378
 28       0.005021628894
 29      -0.005636914896
 Sym=     1a
 Ene= 1.49854217819883E-01
 Spin=Beta
 Occup= 0.000000
  1       0.000003742584
  2      -0.000000214011
  3      -0.000064623188
  4      -0.268585818152
  5       0.132983245170
  6      -0.221368286401
  7      -0.936946479490
  8       0.463905196878
  9      -0.772240955914
 10      -0.002984369374
 11      -0.001410469401
 12       0.003684006378
 13       0.003648408262
 14       0.004968743126