
                                 *****************
                                 * O   R   C   A *
                                 *****************

                                            #,                                       
                                            ###                                      
                                            ####                                     
                                            #####                                    
                                            ######                                   
                                           ########,                                 
                                     ,,################,,,,,                         
                               ,,#################################,,                 
                          ,,##########################################,,             
                       ,#########################################, ''#####,          
                    ,#############################################,,   '####,        
                  ,##################################################,,,,####,       
                ,###########''''           ''''###############################       
              ,#####''   ,,,,##########,,,,          '''####'''          '####       
            ,##' ,,,,###########################,,,                        '##       
           ' ,,###''''                  '''############,,,                           
         ,,##''                                '''############,,,,        ,,,,,,###''
      ,#''                                            '''#######################'''  
     '                                                          ''''####''''         
             ,#######,   #######,   ,#######,      ##                                
            ,#'     '#,  ##    ##  ,#'     '#,    #''#        ,####,    ,#,          
            ##       ##  ##   ,#'  ##            #'  '#       #'       ,# #          
            ##       ##  #######   ##           ,######,      #####,      #          
            '#,     ,#'  ##    ##  '#,     ,#' ,#      #,     #,   #      #          
             '#######'   ##     ##  '#######'  #'      '#     '####' #    #          



                #########################################################
                #                        -***-                          #
                #          Department of theory and spectroscopy        #
                #                                                       #
                #                      Frank Neese                      #
                #                                                       #
                #     Directorship, Architecture, Infrastructure        #
                #                    SHARK, DRIVERS                     #
                #        Core code/Algorithms in most modules           #
                #                                                       #
                #        Max Planck Institute fuer Kohlenforschung      #
                #                Kaiser Wilhelm Platz 1                 #
                #                 D-45470 Muelheim/Ruhr                 #
                #                      Germany                          #
                #                                                       #
                #                  All rights reserved                  #
                #                        -***-                          #
                #########################################################


                         Program Version 6.1.0  -  RELEASE   -
                                (GIT: $679e74b$)
                          ($2025-06-10 18:02:51 +0200$)


 With contributions from (in alphabetic order):
[Max-Planck-Institut fuer Kohlenforschung]                               
  Daniel Aravena         : Magnetic Suceptibility                        
  Michael Atanasov       : Ab Initio Ligand Field Theory (pilot matlab implementation)
  Alexander A. Auer      : GIAO ZORA, VPT2 properties, NMR spectrum      
  Ute Becker             : All parallelization in ORCA, NUMFREQ, NUMCALC 
  Giovanni Bistoni       : ED, misc. LED, open-shell LED, HFLD           
  Dmytro Bykov           : pre 5.0 version of the SCF Hessian            
  Marcos Casanova-Páez   : Triplet and SCS-CIS(D). UHF-(DLPNO)-IP/EA/STEOM-CCSD. UHF-CVS-IP/STEOM-CCSD   
  Vijay G. Chilkuri      : MRCI spin determinant printing, contributions to CSF-ICE 
  Pauline Colinet        : FMM embedding                                 
  Dipayan Datta          : RHF DLPNO-CCSD density                        
  Achintya Kumar Dutta   : EOM-CC, STEOM-CC                              
  Nicolas Foglia         : Exact transition moments, OPA infrastructure, MCD improvements    
  Dmitry Ganyushin       : Spin-Orbit,Spin-Spin,Magnetic field MRCI      
  Miquel Garcia-Rates    : C-PCM and meta-GGA Hessian, CCSD/C-PCM, Gaussian charge scheme 
  Tiago L. C. Gouveia    : GS-ROHF, GS-ROCIS                             
  Yang Guo               : DLPNO-NEVPT2, F12-NEVPT2, CIM, IAO-localization        
  Andreas Hansen         : Spin unrestricted coupled pair/coupled cluster methods 
  Ingolf Harden          : AUTO-CI MPn and infrastructure                
  Benjamin Helmich-Paris : MC-RPA, TRAH-(SCF,CASSCF), AVAS, COSX integrals, SCF dyn. polar., MC-PDFT, srDFT 
  Lee Huntington         : MR-EOM, pCC                                   
  Robert Izsak           : Overlap fitted RIJCOSX, COSX-SCS-MP3, EOM     
  Riya Kayal             : Wick's Theorem for AUTO-CI, AUTO-CI UHF-CCSDT 
  Emily Kempfer          : AUTO-CI RHF CISDT and CCSDT, approximate NEVPT4
  Christian Kollmar      : KDIIS, OOCD, Brueckner-CCSD(T), CCSD density, CASPT2, CASPT2-K, improved NEVPT2 
  Axel Koslowski         : Symmetry handling                             
  Simone Kossmann        : meta-GGA functionals, TD-DFT gradient, OOMP2, (MP2 Hessian; deprecated post 5.0) 
  Lucas Lang             : DCDCAS, Hyperfine gauge corrections, ICE-SOC+SSC
  Marvin Lechner         : AUTO-CI (C++ implementation), FIC-MRCC        
  Spencer Leger          : CASSCF response                               
  Dagmar Lenk            : GEPOL surface, SMD, ORCA-2-JSON               
  Dimitrios Liakos       : Extrapolation schemes; Compound Job, Property file
  Dimitrios Manganas     : Further ROCIS development; embedding schemes. LFT, Crystal Embedding 
  Dimitrios Pantazis     : SARC Basis sets                               
  Anastasios Papadopoulos: AUTO-CI, single reference methods and gradients 
  Taras Petrenko         : pre 6.0 DFT Hessian and TD-DFT gradient,  ECA, NRVS 
  Petra Pikulova         : Analytic Raman intensities                    
  Peter Pinski           : DLPNO-MP2, DLPNO-MP2 Gradient                 
  Shashank Vittal Rao    : ES-AILFT, MagRelax                            
  Christoph Reimann      : Effective Core Potentials                     
  Marius Retegan         : Local ZFS, SOC                                
  Christoph Riplinger    : Optimizer, TS searches, QM/MM, DLPNO-CCSD(T), (RO)-DLPNO pert. Triples 
  Michael Roemelt        : Original ROCIS implementation, recursive CI coupling coefficients
  Masaaki Saitow         : Open-shell DLPNO-CCSD energy and density      
  Barbara Sandhoefer     : DKH picture change effects                    
  Yorick L. A. Schmerwitz: GMF and freeze-and-release deltaSCF, NEB S-IDPP initial path                    
  Kantharuban Sivalingam : CASSCF convergence/infrastructure, NEVPT2, NEVPT3, NEVPT4(SD), FIC-MRCI and CEPA variants
  Bernardo de Souza      : ESD, SOC TD-DFT                               
  Georgi L. Stoychev     : AutoAux, RI-MP2 NMR, DLPNO-MP2 response, X2C  
  Van Anh Tran           : RI-MP2 g-tensors                              
  Willem Van den Heuvel  : Paramagnetic NMR                              
  Zikuan Wang            : NOTCH, Electric field optimization            
  Frank Wennmohs         : Technical directorship and infrastructure     
  Hang Xu                : AUTO-CI-Response properties                   
                                                                         
[FACCTs GmbH]                                                            
  Markus Bursch, Nicolas Foglia, Miquel Garcia-Rates, Ingolf Harden, Hagen Neugebauer, Anastasios Papadopoulos, 
  Christoph Riplinger, Bernardo de Souza, Georgi L. Stoychev                                                    
                                                                 
  APM, various basis sets, CI-OPT, improved COSX, DLPNO-Multilevel,           
  DOCKER, DRACO, updates on ESD, Fragmentator, GOAT, IRC, LR-CPCM, L-BFGS, MBIS, meta-GGA TD-DFT gradient, ML-optimized integration grids, 
  MM, NACMEs, nearIR, NEB, NEB-TS, NL-DFT gradient (VV10), 2- and 3-layer-ONIOM, interface openCOSMO-RS, QMMM,   
  Crystal-QMMM, RESP, rigid body optimization, SF, symmetry and pop. for TD-DFT, various functionals, SOLVATOR                                   
                                                                         
[Other institutions]                                                     
  V. Asgeirsson          : NEB                                           
  Christoph Bannwarth    : sTDA-DFT, sTD-DFT, PBEh-3c, B97-3c, D3        
  Giovanni Bistoni       : ETS/NOCV, ADLD/ADEX, COVALED                  
  Martin Brehm           : Molecular dynamics                            
  Ronald Cardenas        : ETS/NOCV                                      
  Martina Colucci        : COVALED                                       
  Sebastian Ehlert       : rSCAN, r2SCAN, r2SCAN-3c, D4, dhf basis sets  
  Marvin Friede          : D4 for Fr, Ra, Ac-Lr                          
  Lars Goerigk           : TD-DFT with DH, B97 family of functionals     
  Stefan Grimme          : VdW corrections, initial TS optimization, DFT functionals, gCP, sTDA/sTD-DF 
  Waldemar Hujo          : DFT-NL                                        
  H. Jonsson             : NEB                                           
  Holger Kruse           : gCP                                           
  Marcel Mueller         : wB97X-3c, vDZP basis set                      
  Hagen Neugebauer       : wr2SCAN, Native XTB                           
  Gianluca Regni         : ADLD/ADEX                                     
  Tobias Risthaus        : pre 6.0 range-separated hybrid DFT and stability analysis
  Lukas Wittmann         : regularized MP2, r2SCAN double-hybrids, wr2SCAN        
                                                                         
We gratefully acknowledge several colleagues who have allowed us to      
interface, adapt or use parts of their codes:                            
  Ed Valeev, F. Pavosevic, A. Kumar             : LibInt (2-el integral package), F12 methods 
  Garnet Chan, S. Sharma, J. Yang, R. Olivares  : DMRG                   
  Ulf Ekstrom                                   : XCFun DFT Library      
  Mihaly Kallay                                 : mrcc  (arbitrary order and MRCC methods)
  Frank Weinhold                                : gennbo (NPA and NBO analysis)           
  Simon Mueller                                 : openCOSMO-RS                            
  Christopher J. Cramer and Donald G. Truhlar   : smd solvation model                     
  S Lehtola, MJT Oliveira, MAL Marques          : LibXC Library                           
  Liviu Ungur et al                             : ANISO software                          


 Your calculation uses the libint2 library for the computation of 2-el integrals
 For citations please refer to: http://libint.valeyev.net

 Your ORCA version has been built with support for libXC version: 7.0.0
 For citations please refer to: https://libxc.gitlab.io

 This ORCA versions uses:
   CBLAS   interface :  Fast vector & matrix operations
   LAPACKE interface :  Fast linear algebra routines
   SCALAPACK package :  Parallel linear algebra routines
   Shared memory     :  Shared parallel matrices
   BLAS/LAPACK       :  OpenBLAS 0.3.29  USE64BITINT DYNAMIC_ARCH NO_AFFINITY SkylakeX SINGLE_THREADED
        Core in use  :  SkylakeX
   Copyright (c) 2011-2014, The OpenBLAS Project


  ***********************************
  * Starting time: Wed Dec 10 13:12:13 2025
  * Host name:     Jhonnytest
  * Process ID:    3809
  * Working dir.:  /home/jhonapontee/Group-theory/Proyecto/CH3
  ***********************************

================================================================================

----- Orbital basis set information -----
Your calculation utilizes the basis: def2-SVP
   F. Weigend and R. Ahlrichs, Phys. Chem. Chem. Phys. 7, 3297 (2005).

================================================================================
                                        WARNINGS
                       Please study these warnings very carefully!
================================================================================

WARNING: Old DensityContainer found on disk!
         Will remove this file - 
         If you want to keep old densities, please start your calculation with a different basename. 


WARNING: TRAH-SCF with ROHF wave function is not implemented yet
  ===> : Turning TRAH off


================================================================================
                                       INPUT FILE
================================================================================
NAME = ch3.inp
|  1> ! ROKS B3LYP def2-SVP SP
|  2> ! LargePrint   
|  3> ! UseSym          
|  4> ! NormalSCF       
|  5> 
|  6> 
|  7> * xyz 0 2
|  8> C      0.000000      0.000000      0.000000
|  9> H      1.082530      0.000000      0.000000
| 10> H     -0.541265      0.937475      0.000000
| 11> H     -0.541265     -0.937475      0.000000
| 12> *
| 13> 
| 14>                          ****END OF INPUT****
================================================================================
-----------------------
SYMMETRY HANDLING SETUP
-----------------------
Auto-detected point group .... D3h
Reduced point group       .... C2v
Root mean square distance .... 0.000022185723799 au
Maximum distance          .... 0.000025617867216 au
Threshold in use          .... 0.000100000000000 au
Time for symmetry setup   .... 0.013 s


Symmetry-perfected Cartesians for point group D3h:

Index  Symbol         Symmetry-perfected Cartesians (x, y, z; au)
   0     C     -0.000000000000000   0.000000000000000   0.000000000000000
   1     H      2.045659613886556   0.000000000000000   0.000000000000000
   2     H     -1.022829806943278   1.771593193121624   0.000000000000000
   3     H     -1.022829806943278  -1.771593193121624   0.000000000000000

Index  Symbol         Symmetry-perfected Cartesians (x, y, z; Ang)
   0     C     -0.000000000000000   0.000000000000000   0.000000000000000
   1     H      1.082516443608544   0.000000000000000   0.000000000000000
   2     H     -0.541258221804272   0.937486740179384   0.000000000000000
   3     H     -0.541258221804272  -0.937486740179384   0.000000000000000

                       ****************************
                       * Single Point Calculation *
                       ****************************

---------------------------------
CARTESIAN COORDINATES (ANGSTROEM)
---------------------------------
  C     -0.000000    0.000000    0.000000
  H      1.082516    0.000000    0.000000
  H     -0.541258    0.937487    0.000000
  H     -0.541258   -0.937487    0.000000

----------------------------
CARTESIAN COORDINATES (A.U.)
----------------------------
  NO LB      ZA    FRAG     MASS         X           Y           Z
   0 C     6.0000    0    12.011   -0.000000    0.000000    0.000000
   1 H     1.0000    0     1.008    2.045660    0.000000    0.000000
   2 H     1.0000    0     1.008   -1.022830    1.771593    0.000000
   3 H     1.0000    0     1.008   -1.022830   -1.771593    0.000000

--------------------------------
INTERNAL COORDINATES (ANGSTROEM)
--------------------------------
 C      0   0   0     0.000000000000     0.00000000     0.00000000
 H      1   0   0     1.082530000000     0.00000000     0.00000000
 H      1   2   0     1.082509665476   120.00062139     0.00000000
 H      1   2   3     1.082509665476   120.00062139   180.00000000

---------------------------
INTERNAL COORDINATES (A.U.)
---------------------------
 C      0   0   0     0.000000000000     0.00000000     0.00000000
 H      1   0   0     2.045685231754     0.00000000     0.00000000
 H      1   2   0     2.045646805073   120.00062139     0.00000000
 H      1   2   3     2.045646805073   120.00062139   180.00000000

---------------------
BASIS SET INFORMATION
---------------------
There are 2 groups of distinct atoms

 Group   1 Type C   : 7s4p1d contracted to 3s2p1d pattern {511/31/1}
 Group   2 Type H   : 4s1p contracted to 2s1p pattern {31/1}

Atom   0C    basis set group =>   1
Atom   1H    basis set group =>   2
Atom   2H    basis set group =>   2
Atom   3H    basis set group =>   2

-------------------------
BASIS SET IN INPUT FORMAT
-------------------------

 # Basis set for element : H 
 NewGTO H 
 S 3 
   1      13.0107010000      0.0334854848
   2       1.9622572000      0.2347218709
   3       0.4445379600      0.8137702853
 S 1 
   1       0.1219496200      1.0000000000
 P 1 
   1       0.8000000000      1.0000000000
  end;

 # Basis set for element : C 
 NewGTO C 
 S 5 
   1    1238.4016938000      0.0055173650
   2     186.2900499200      0.0410888285
   3      42.2511763460      0.1822538213
   4      11.6765579320      0.4682845944
   5       3.5930506482      0.4457581734
 S 1 
   1       0.4024514736      1.0000000000
 S 1 
   1       0.1309018267      1.0000000000
 P 3 
   1       9.4680970621      0.0568883320
   2       2.0103545142      0.3129405934
   3       0.5477100471      0.7606501651
 P 1 
   1       0.1526861379      1.0000000000
 D 1 
   1       0.8000000000      1.0000000000
  end;


Checking for AutoStart:
The File: ch3.gbw exists
Trying to determine its content:
     ... Fine, the file contains calculation information
     ... Fine, the calculation information was read
     ... Fine, the file contains a basis set
     ... Fine, the basis set was read
     ... Fine, the file contains a geometry
     ... Fine, the geometry was read
     ... Fine, the file contains a set of orbitals
     ... Fine, the orbitals can be read
     => possible old guess file was deleted
     => GBW file was renamed to GES file
     => GES file is set as startup file
     => Guess is set to MORead
     ... now leaving AutoStart

------------------------------------------------------------------------------
                             ORCA STARTUP CALCULATIONS
------------------------------------------------------------------------------
------------------------------------------------------------------------------
                   ___                                                        
                  /   \      - P O W E R E D   B Y -                         
                 /     \                                                     
                 |  |  |   _    _      __       _____    __    __             
                 |  |  |  | |  | |    /  \     |  _  \  |  |  /  |          
                  \  \/   | |  | |   /    \    | | | |  |  | /  /          
                 / \  \   | |__| |  /  /\  \   | |_| |  |  |/  /          
                |  |  |   |  __  | /  /__\  \  |    /   |      \           
                |  |  |   | |  | | |   __   |  |    \   |  |\   \          
                \     /   | |  | | |  |  |  |  | |\  \  |  | \   \       
                 \___/    |_|  |_| |__|  |__|  |_| \__\ |__|  \__/        
                                                                              
                      - O R C A' S   B I G   F R I E N D -                    
                                      &                                       
                       - I N T E G R A L  F E E D E R -                       
                                                                              
 v1 FN, 2020, v2 2021, v3 2022-2024                                           
------------------------------------------------------------------------------


----------------------
SHARK INTEGRAL PACKAGE
----------------------

Number of atoms                             ...      4
Number of basis functions                   ...     29
Number of shells                            ...     15
Maximum angular momentum                    ...      2
Integral batch strategy                     ... SHARK/LIBINT Hybrid
RI-J (if used) integral strategy            ... SPLIT-RIJ (Revised 2003 algorithm where possible)
Printlevel                                  ...      1
Contraction scheme used                     ... SEGMENTED contraction
Prescreening option                         ... SCHWARTZ
   Thresh                                   ... 1.000e-10
   Tcut                                     ... 1.000e-11
   Tpresel                                  ... 1.000e-11 
Coulomb Range Separation                    ... NOT USED
Exchange Range Separation                   ... NOT USED
Multipole approximations                    ... NOT USED
Finite Nucleus Model                        ... NOT USED
CABS basis                                  ... NOT available
Auxiliary Coulomb fitting basis             ... NOT available
Auxiliary J/K fitting basis                 ... NOT available
Auxiliary Correlation fitting basis         ... NOT available
Auxiliary 'external' fitting basis          ... NOT available

Checking pre-screening integrals            ... done (  0.0 sec) Dimension = 15
   => SHARK Basis and OBASIS are compatible. Storing Pre-screening
Shell pair information
Shell pair cut-off parameter TPreSel        ...   1.0e-11
Total number of shell pairs                 ...       120
Shell pairs after pre-screening             ...       120
Total number of primitive shell pairs       ...       400
Primitive shell pairs kept                  ...       388
          la=0 lb=0:     45 shell pairs
          la=1 lb=0:     45 shell pairs
          la=1 lb=1:     15 shell pairs
          la=2 lb=0:      9 shell pairs
          la=2 lb=1:      5 shell pairs
          la=2 lb=2:      1 shell pairs

Checking whether 4 symmetric matrices of dimension 29 fit in memory
:Max Core in MB      =   4096.00
 MB in use           =      1.46
 MB left             =   4094.54
 MB needed           =      0.01
 Data fit in memory  = YES
Calculating Nuclear repulsion               ... done (  0.0 sec) ENN=      9.645813347256 Eh

Diagonalization of the overlap matrix:
Smallest eigenvalue                        ... 4.341e+00
Time for diagonalization                   ...    0.005 sec
Threshold for overlap eigenvalues          ... 1.000e-07
Number of eigenvalues below threshold      ... 0
Time for construction of square roots      ...    0.000 sec
Total time needed                          ...    0.005 sec

-------------------
DFT GRID GENERATION
-------------------

General Integration Accuracy     IntAcc      ... 4.388
Radial Grid Type                 RadialGrid  ... OptM3 with GC (2021)
Angular Grid (max. ang.)         AngularGrid ... 4 (Lebedev-302)
Angular grid pruning method      GridPruning ... 4 (adaptive)
Weight generation scheme         WeightScheme... mBecke (2022)
Basis function cutoff            BFCut       ... 1.0000e-10
Integration weight cutoff        WCut        ... 1.0000e-14
Partially contracted basis set               ... off
Rotationally invariant grid construction     ... off
Angular grids for H and He will be reduced by one unit

Total number of grid points                  ...    16020
Total number of batches                      ...      253
Average number of points per batch           ...       63
Average number of grid points per atom       ...     4005
Grids setup in   0.1 sec
Initializing property integral containers    ... done (  0.0 sec)

SHARK setup successfully completed in   0.2 seconds

Maximum memory used throughout the entire STARTUP-calculation: 7.0 MB
-------------------------------------------------------------------------------
                                 ORCA GUESS
                   Start orbitals & Density for SCF / CASSCF
-------------------------------------------------------------------------------

------------
SCF SETTINGS
------------
Hamiltonian:
 Density Functional     Method          .... DFT(GTOs)
 Exchange Functional    Exchange        .... B88
   X-Alpha parameter    XAlpha          ....  0.666667
   Becke's b parameter  XBeta           ....  0.004200
 Correlation Functional Correlation     .... LYP
 LDA part of GGA corr.  LDAOpt          .... VWN-5
 Gradients option       PostSCFGGA      .... off
 Hybrid DFT is turned on
   Fraction HF Exchange ScalHFX         ....  0.200000
   Scaling of DF-GGA-X  ScalDFX         ....  0.720000
   Scaling of DF-GGA-C  ScalDFC         ....  0.810000
   Scaling of DF-LDA-C  ScalLDAC        ....  1.000000
   Perturbative correction              ....  0.000000
   NL short-range parameter             ....  4.800000


General Settings:
 Integral files         IntName         .... ch3
 Hartree-Fock type      HFTyp           .... ROHF
 Total Charge           Charge          ....    0
 Multiplicity           Mult            ....    2
 Number of Electrons    NEL             ....    9
 Basis Dimension        Dim             ....   29
 Nuclear Repulsion      ENuc            ....      9.6458133473 Eh

 Symmetry handling      UseSym         .... ON
 Point group                           .... D3h
 Symmetry-adapted orbitals             .... C2v
 Petite-list algorithm                 .... OFF
 Number of irreps                      .... 4
   Irrep   A1 has   14 symmetry adapted basis functions (ofs=   0)
   Irrep   A2 has    2 symmetry adapted basis functions (ofs=  14)
   Irrep   B1 has    8 symmetry adapted basis functions (ofs=  16)
   Irrep   B2 has    5 symmetry adapted basis functions (ofs=  24)

Convergence Acceleration:
 AO-DIIS                CNVDIIS         .... on
   Start iteration      DIISMaxIt       ....    12
   Startup error        DIISStart       ....  0.200000
   # of expansion vecs  DIISMaxEq       ....     5
   Bias factor          DIISBfac        ....   1.050
   Max. coefficient     DIISMaxC        ....  10.000
 MO-DIIS                CNVKDIIS        .... off
 Trust-Rad. Augm. Hess. CNVTRAH         .... off
 SOSCF                 CNVSOSCF           .... on
   Start iteration     SOSCFMaxIt         ....   150
   Startup grad/error  SOSCFStart         ....  0.003300
   Hessian update      SOSCFHessUp        .... L-BFGS
   Autom. constraints  SOSCFAutoConstrain .... off
 Level Shifting         CNVShift        .... on
   Level shift para.    LevelShift      ....    0.2500
   Turn off err/grad.   ShiftErr        ....    0.0010
 Zerner damping         CNVZerner       .... off
 Static damping         CNVDamp         .... on
   Fraction old density DampFac         ....    0.7000
   Max. Damping (<1)    DampMax         ....    0.9800
   Min. Damping (>=0)   DampMin         ....    0.0000
   Turn off err/grad.   DampErr         ....    0.1000

SCF Procedure:
 Maximum # iterations   MaxIter         ....   125
 SCF integral mode      SCFMode         .... Direct
   Integral package                     .... SHARK and LIBINT hybrid scheme
 Reset frequency        DirectResetFreq ....     1
 Integral Threshold     Thresh          ....  1.000e-10 Eh
 Primitive CutOff       TCut            ....  1.000e-11 Eh

Convergence Tolerance:
 Convergence Check Mode ConvCheckMode   .... Total+1el-Energy
 Convergence forced     ConvForced      .... 0
 Energy Change          TolE            ....  1.000e-06 Eh
 1-El. energy change                    ....  1.000e-03 Eh
 Orbital Gradient       TolG            ....  5.000e-05
 Orbital Rotation angle TolX            ....  5.000e-05
 DIIS Error             TolErr          ....  1.000e-05

---------------------
INITIAL GUESS: MOREAD
---------------------
Guess MOs are being read from file: ch3.ges
Input Geometry matches current geometry (good)
Input basis set matches current basis set (good)
Warning: Geometry matches/Basis set matches and symmetry is to be used.
         We clean up the input orbitals and determine their irreps.
MOs were renormalized
MOs were reorthogonalized (Cholesky)

-----------------------------
DETECTED OPEN SHELL STRUCTURE
-----------------------------
  There are 1 open shells
  (1) From orb=  4 to orb=  4 deg= 1 Alpha=1 Beta=0 en= -0.2289
  DOUBLET case found

-------------------
FINAL ROHF SETTINGS
-------------------
Number of operators             ... 2
  operator   0:   4 orbitals   8 electrons n(mue)= 2.000
  operator   1:   1 orbitals   1 electrons n(mue)= 1.000
Vector coupling coefficients a and b (Zerner convention):
   1.000    1.000           1.000    1.000 
   1.000    1.000           1.000    2.000 


   => ROHF data were saved in the ROHF file

Occupation of irreps:
Operator 0
    A1 occ= 3
    A2 occ= 0
    B1 occ= 1
    B2 occ= 0
Operator 1
    A1 occ= 0
    A2 occ= 0
    B1 occ= 0
    B2 occ= 1

Number of occupied orbitals per irrep of operator 0:
  A1   -    3
  A2   -    0
  B1   -    1
  B2   -    1
Number of occupied orbitals per irrep of operator 1:
  A1   -    1
  A2   -    0
  B1   -    0
  B2   -    0
                      ------------------
                      INITIAL GUESS DONE (   0.0 sec)
                      ------------------
----------------------
INITIAL GUESS ORBITALS
----------------------
                      0         1         2         3         4         5   
                 -10.19422  -0.67314  -0.41586  -0.41584  -0.22889   0.08061
                   2.00000   2.00000   2.00000   2.00000   1.00000   0.00000
                  --------  --------  --------  --------  --------  --------
  0C   1s         0.988001 -0.260719  0.000005  0.000000  0.000000  0.158780
  0C   2s         0.049372  0.513481 -0.000025 -0.000000  0.000000 -0.319223
  0C   3s        -0.032216  0.208897  0.000052 -0.000000  0.000000 -2.442521
  0C   1pz        0.000000  0.000000  0.000000  0.000000 -0.614377  0.000000
  0C   1px       -0.000001  0.000005 -0.455153  0.000000  0.000000 -0.000005
  0C   1py        0.000000  0.000000  0.000000  0.455161  0.000000 -0.000000
  0C   2pz        0.000000  0.000000  0.000000  0.000000 -0.509176  0.000000
  0C   2px        0.000022 -0.000076 -0.165230 -0.000000  0.000000  0.000096
  0C   2py       -0.000000 -0.000000  0.000000  0.165120  0.000000 -0.000000
  0C   1dz2      -0.002540  0.005817 -0.000006  0.000000  0.000000 -0.012649
  0C   1dxz       0.000000  0.000000  0.000000  0.000000 -0.000014  0.000000
  0C   1dyz       0.000000  0.000000  0.000000  0.000000 -0.000000  0.000000
  0C   1dx2y2     0.000005 -0.000010 -0.018708  0.000000  0.000000  0.000009
  0C   1dxy       0.000000 -0.000000 -0.000000 -0.018703  0.000000  0.000000
  1H   1s        -0.004603  0.188956 -0.366791 -0.000000  0.000000  0.069546
  1H   2s         0.007429  0.025686 -0.144255 -0.000000  0.000000  1.202918
  1H   1pz        0.000000  0.000000  0.000000  0.000000 -0.018471  0.000000
  1H   1px        0.003015 -0.022754  0.012017  0.000000  0.000000  0.008137
  1H   1py        0.000000 -0.000000  0.000000  0.012408  0.000000  0.000000
  2H   1s        -0.004592  0.188920  0.183388  0.317670  0.000000  0.069590
  2H   2s         0.007448  0.025619  0.072111  0.124990  0.000000  1.203018
  2H   1pz        0.000000  0.000000  0.000000  0.000000 -0.018467  0.000000
  2H   1px       -0.001507  0.011376 -0.006296  0.010578  0.000000 -0.004065
  2H   1py        0.002607 -0.019697 -0.010573 -0.005914  0.000000  0.007040
  3H   1s        -0.004592  0.188920  0.183388 -0.317670  0.000000  0.069590
  3H   2s         0.007448  0.025619  0.072111 -0.124990  0.000000  1.203018
  3H   1pz        0.000000  0.000000  0.000000  0.000000 -0.018467  0.000000
  3H   1px       -0.001507  0.011376 -0.006296 -0.010578  0.000000 -0.004065
  3H   1py       -0.002607  0.019697  0.010573 -0.005914  0.000000 -0.007040
                      6         7         8         9        10        11   
                   0.14580   0.14581   0.44443   0.44448   0.46943   0.47959
                   0.00000   0.00000   0.00000   0.00000   0.00000   0.00000
                  --------  --------  --------  --------  --------  --------
  0C   1s         0.000007 -0.000000 -0.000000 -0.000146 -0.076831  0.000000
  0C   2s        -0.000016  0.000000  0.000000  0.001539  0.943079  0.000000
  0C   3s        -0.000023  0.000000  0.000000 -0.004425 -2.815757  0.000000
  0C   1pz        0.000000  0.000000  0.000000  0.000000  0.000000  0.995731
  0C   1px       -0.377038 -0.000000  0.000000  0.298354 -0.000284  0.000000
  0C   1py        0.000000  0.377055 -0.298535 -0.000000 -0.000000  0.000000
  0C   2pz        0.000000  0.000000  0.000000  0.000000  0.000000 -1.077882
  0C   2px       -1.285745  0.000000  0.000000 -1.488331  0.001606  0.000000
  0C   2py        0.000000  1.285740  1.488683 -0.000000 -0.000000  0.000000
  0C   1dz2      -0.000006  0.000000  0.000000 -0.000108 -0.113053  0.000000
  0C   1dxz       0.000000  0.000000  0.000000  0.000000  0.000000  0.000040
  0C   1dyz       0.000000  0.000000  0.000000  0.000000  0.000000 -0.000000
  0C   1dx2y2     0.009557  0.000000 -0.000000  0.088279 -0.000139  0.000000
  0C   1dxy      -0.000000  0.009562  0.088239 -0.000000  0.000000  0.000000
  1H   1s         0.078439 -0.000000 -0.000000  0.825918  0.630404  0.000000
  1H   2s         1.989381 -0.000000 -0.000000  0.215852  0.392888  0.000000
  1H   1pz        0.000000  0.000000  0.000000  0.000000  0.000000  0.028354
  1H   1px        0.004470 -0.000000 -0.000000 -0.007973  0.027205  0.000000
  1H   1py       -0.000000  0.011884  0.079369  0.000000 -0.000000  0.000000
  2H   1s        -0.039232 -0.067939 -0.714590 -0.411962  0.631955  0.000000
  2H   2s        -0.994661 -1.722818 -0.186524 -0.106689  0.392991  0.000000
  2H   1pz        0.000000  0.000000  0.000000  0.000000  0.000000  0.028345
  2H   1px       -0.007793  0.007081  0.030895 -0.061552 -0.013520  0.000000
  2H   1py       -0.007077 -0.000383  0.025855 -0.030906  0.023617  0.000000
  3H   1s        -0.039232  0.067939  0.714590 -0.411962  0.631955  0.000000
  3H   2s        -0.994661  1.722818  0.186524 -0.106689  0.392991  0.000000
  3H   1pz        0.000000  0.000000  0.000000  0.000000  0.000000  0.028345
  3H   1px       -0.007793 -0.007081 -0.030895 -0.061552 -0.013520  0.000000
  3H   1py        0.007077 -0.000383  0.025855  0.030906 -0.023617  0.000000
                     12        13        14        15        16        17   
                   0.63838   0.68901   0.68904   1.19587   1.19589   1.48027
                   0.00000   0.00000   0.00000   0.00000   0.00000   0.00000
                  --------  --------  --------  --------  --------  --------
  0C   1s        -0.299565 -0.000000 -0.000231  0.000000  0.000000 -0.000000
  0C   2s         1.816330 -0.000000  0.001408  0.000000  0.000000  0.000000
  0C   3s        -4.171724  0.000000 -0.003263  0.000000  0.000000 -0.000000
  0C   1pz        0.000000  0.000000  0.000000  0.000000  0.000045  0.000000
  0C   1px        0.000601 -0.000000 -0.930525  0.000000  0.000000 -0.000000
  0C   1py       -0.000000 -0.930458 -0.000000  0.000000  0.000000  0.000002
  0C   2pz        0.000000  0.000000  0.000000  0.000000 -0.000032  0.000000
  0C   2px       -0.000894  0.000000  1.631806  0.000000  0.000000  0.000000
  0C   2py       -0.000000  1.631549 -0.000000  0.000000  0.000000 -0.000006
  0C   1dz2       0.106015  0.000000  0.000057  0.000000  0.000000 -0.000000
  0C   1dxz       0.000000  0.000000  0.000000 -0.000000 -0.437213  0.000000
  0C   1dyz       0.000000  0.000000  0.000000  0.437270  0.000000  0.000000
  0C   1dx2y2    -0.000157  0.000000  0.147819  0.000000  0.000000  0.000000
  0C   1dxy       0.000000 -0.147851  0.000000  0.000000  0.000000  0.000010
  1H   1s        -0.426820 -0.000000  0.579311  0.000000  0.000000 -0.000000
  1H   2s         1.396908 -0.000000 -1.790168  0.000000  0.000000  0.000000
  1H   1pz        0.000000  0.000000  0.000000 -0.000000 -0.601068  0.000000
  1H   1px       -0.103621  0.000000  0.174250  0.000000  0.000000 -0.000000
  1H   1py        0.000000 -0.068936  0.000000  0.000000  0.000000 -0.589166
  2H   1s        -0.425949  0.502052 -0.290034  0.000000  0.000000  0.000001
  2H   2s         1.395007 -1.551219  0.896644  0.000000  0.000000  0.000004
  2H   1pz        0.000000  0.000000  0.000000  0.520508  0.300535  0.000000
  2H   1px        0.051782 -0.105328 -0.008056  0.000000  0.000000  0.510232
  2H   1py       -0.089542  0.113506 -0.105388  0.000000  0.000000  0.294580
  3H   1s        -0.425949 -0.502052 -0.290034  0.000000  0.000000 -0.000001
  3H   2s         1.395007  1.551219  0.896644  0.000000  0.000000 -0.000004
  3H   1pz        0.000000  0.000000  0.000000 -0.520508  0.300535  0.000000
  3H   1px        0.051782  0.105328 -0.008056  0.000000  0.000000 -0.510232
  3H   1py        0.089542  0.113506  0.105388  0.000000  0.000000  0.294580
                     18        19        20        21        22        23   
                   1.60527   1.60528   1.73296   1.82294   2.21749   2.21756
                   0.00000   0.00000   0.00000   0.00000   0.00000   0.00000
                  --------  --------  --------  --------  --------  --------
  0C   1s        -0.000000  0.000015  0.000000 -0.080860  0.000000  0.000000
  0C   2s         0.000000 -0.000050  0.000000  0.726787  0.000000  0.000000
  0C   3s        -0.000000  0.000171  0.000000 -0.600772  0.000000  0.000000
  0C   1pz        0.000000  0.000000  0.241100  0.000000  0.000000  0.000034
  0C   1px        0.000000  0.148542  0.000000 -0.000025  0.000000  0.000000
  0C   1py        0.148505  0.000000  0.000000  0.000000  0.000000  0.000000
  0C   2pz        0.000000  0.000000  0.402170  0.000000  0.000000 -0.000013
  0C   2px       -0.000000 -1.084638  0.000000  0.000100  0.000000  0.000000
  0C   2py       -1.084567 -0.000000  0.000000 -0.000000  0.000000  0.000000
  0C   1dz2      -0.000000  0.000040  0.000000  0.760322  0.000000  0.000000
  0C   1dxz       0.000000  0.000000  0.000022  0.000000  0.000000 -1.012429
  0C   1dyz       0.000000  0.000000 -0.000000  0.000000  1.012405  0.000000
  0C   1dx2y2    -0.000000 -0.324924  0.000000 -0.000006  0.000000  0.000000
  0C   1dxy       0.324913  0.000000  0.000000 -0.000000  0.000000  0.000000
  1H   1s        -0.000000  0.498865  0.000000  0.154595  0.000000  0.000000
  1H   2s         0.000000  0.353926  0.000000  0.004363  0.000000  0.000000
  1H   1pz        0.000000  0.000000 -0.654148  0.000000 -0.000000  0.674433
  1H   1px       -0.000000  0.332630  0.000000  0.352591  0.000000  0.000000
  1H   1py        0.653364  0.000000  0.000000 -0.000000  0.000000  0.000000
  2H   1s         0.432018 -0.249426  0.000000  0.154631  0.000000  0.000000
  2H   2s         0.306513 -0.177042  0.000000  0.004436  0.000000  0.000000
  2H   1pz        0.000000  0.000000 -0.654126  0.000000 -0.584116 -0.337236
  2H   1px        0.138888  0.573156  0.000000 -0.176349  0.000000  0.000000
  2H   1py        0.412798  0.138913  0.000000  0.305347  0.000000  0.000000
  3H   1s        -0.432018 -0.249426  0.000000  0.154631  0.000000  0.000000
  3H   2s        -0.306513 -0.177042  0.000000  0.004436  0.000000  0.000000
  3H   1pz        0.000000  0.000000 -0.654126  0.000000  0.584116 -0.337236
  3H   1px       -0.138888  0.573156  0.000000 -0.176349  0.000000  0.000000
  3H   1py        0.412798 -0.138913  0.000000 -0.305347  0.000000  0.000000
                     24        25        26        27        28   
                   2.23693   2.23693   2.84747   2.91506   2.91508
                   0.00000   0.00000   0.00000   0.00000   0.00000
                  --------  --------  --------  --------  --------
  0C   1s         0.000005 -0.000000  0.269841  0.000030  0.000000
  0C   2s        -0.000039 -0.000000 -1.679668 -0.000163 -0.000000
  0C   3s         0.000023  0.000000 -1.091035 -0.000015  0.000000
  0C   1pz        0.000000  0.000000  0.000000  0.000000  0.000000
  0C   1px        0.731800 -0.000000  0.000071 -1.092020  0.000000
  0C   1py       -0.000000  0.731812 -0.000000  0.000000  1.092016
  0C   2pz        0.000000  0.000000  0.000000  0.000000  0.000000
  0C   2px        0.692034  0.000000  0.000016 -0.449554  0.000000
  0C   2py        0.000000  0.692038 -0.000000 -0.000000  0.449548
  0C   1dz2      -0.000008 -0.000000  1.041420  0.000065  0.000000
  0C   1dxz       0.000000  0.000000  0.000000  0.000000  0.000000
  0C   1dyz       0.000000  0.000000  0.000000  0.000000  0.000000
  0C   1dx2y2    -0.365015 -0.000000  0.000103 -1.392258  0.000000
  0C   1dxy      -0.000000  0.365002 -0.000000  0.000000 -1.392263
  1H   1s        -0.282783  0.000000  0.788020  1.059513  0.000000
  1H   2s        -0.680432 -0.000000  0.336226  0.297321 -0.000000
  1H   1pz        0.000000  0.000000  0.000000  0.000000  0.000000
  1H   1px        0.728140  0.000000 -0.914038 -1.082415  0.000000
  1H   1py       -0.000000 -0.685326 -0.000000  0.000000  0.310661
  2H   1s         0.141399 -0.244907  0.788126 -0.529675 -0.917517
  2H   2s         0.340212 -0.589274  0.336240 -0.148644 -0.257471
  2H   1pz        0.000000  0.000000  0.000000  0.000000  0.000000
  2H   1px       -0.331955 -0.612064  0.457096 -0.503547 -0.334141
  2H   1py       -0.612072  0.374794 -0.791661  0.334090  0.889420
  3H   1s         0.141399  0.244907  0.788126 -0.529675  0.917517
  3H   2s         0.340212  0.589274  0.336240 -0.148644  0.257471
  3H   1pz        0.000000  0.000000  0.000000  0.000000  0.000000
  3H   1px       -0.331955  0.612064  0.457096 -0.503547  0.334141
  3H   1py        0.612072  0.374794  0.791661 -0.334090  0.889420
                      0         1         2         3         4         5   
                 -10.19422  -0.67314  -0.41586  -0.41584  -0.22889   0.08061
                   0.00000   0.00000   0.00000   0.00000   1.00000   0.00000
                  --------  --------  --------  --------  --------  --------
  0C   1s         0.988001 -0.260719  0.000005  0.000000  0.000000  0.158780
  0C   2s         0.049372  0.513481 -0.000025 -0.000000  0.000000 -0.319223
  0C   3s        -0.032216  0.208897  0.000052 -0.000000  0.000000 -2.442521
  0C   1pz        0.000000  0.000000  0.000000  0.000000 -0.614377  0.000000
  0C   1px       -0.000001  0.000005 -0.455153  0.000000  0.000000 -0.000005
  0C   1py        0.000000  0.000000  0.000000  0.455161  0.000000 -0.000000
  0C   2pz        0.000000  0.000000  0.000000  0.000000 -0.509176  0.000000
  0C   2px        0.000022 -0.000076 -0.165230 -0.000000  0.000000  0.000096
  0C   2py       -0.000000 -0.000000  0.000000  0.165120  0.000000 -0.000000
  0C   1dz2      -0.002540  0.005817 -0.000006  0.000000  0.000000 -0.012649
  0C   1dxz       0.000000  0.000000  0.000000  0.000000 -0.000014  0.000000
  0C   1dyz       0.000000  0.000000  0.000000  0.000000 -0.000000  0.000000
  0C   1dx2y2     0.000005 -0.000010 -0.018708  0.000000  0.000000  0.000009
  0C   1dxy       0.000000 -0.000000 -0.000000 -0.018703  0.000000  0.000000
  1H   1s        -0.004603  0.188956 -0.366791 -0.000000  0.000000  0.069546
  1H   2s         0.007429  0.025686 -0.144255 -0.000000  0.000000  1.202918
  1H   1pz        0.000000  0.000000  0.000000  0.000000 -0.018471  0.000000
  1H   1px        0.003015 -0.022754  0.012017  0.000000  0.000000  0.008137
  1H   1py        0.000000 -0.000000  0.000000  0.012408  0.000000  0.000000
  2H   1s        -0.004592  0.188920  0.183388  0.317670  0.000000  0.069590
  2H   2s         0.007448  0.025619  0.072111  0.124990  0.000000  1.203018
  2H   1pz        0.000000  0.000000  0.000000  0.000000 -0.018467  0.000000
  2H   1px       -0.001507  0.011376 -0.006296  0.010578  0.000000 -0.004065
  2H   1py        0.002607 -0.019697 -0.010573 -0.005914  0.000000  0.007040
  3H   1s        -0.004592  0.188920  0.183388 -0.317670  0.000000  0.069590
  3H   2s         0.007448  0.025619  0.072111 -0.124990  0.000000  1.203018
  3H   1pz        0.000000  0.000000  0.000000  0.000000 -0.018467  0.000000
  3H   1px       -0.001507  0.011376 -0.006296 -0.010578  0.000000 -0.004065
  3H   1py       -0.002607  0.019697  0.010573 -0.005914  0.000000 -0.007040
                      6         7         8         9        10        11   
                   0.14580   0.14581   0.44443   0.44448   0.46943   0.47959
                   0.00000   0.00000   0.00000   0.00000   0.00000   0.00000
                  --------  --------  --------  --------  --------  --------
  0C   1s         0.000007 -0.000000 -0.000000 -0.000146 -0.076831  0.000000
  0C   2s        -0.000016  0.000000  0.000000  0.001539  0.943079  0.000000
  0C   3s        -0.000023  0.000000  0.000000 -0.004425 -2.815757  0.000000
  0C   1pz        0.000000  0.000000  0.000000  0.000000  0.000000  0.995731
  0C   1px       -0.377038 -0.000000  0.000000  0.298354 -0.000284  0.000000
  0C   1py        0.000000  0.377055 -0.298535 -0.000000 -0.000000  0.000000
  0C   2pz        0.000000  0.000000  0.000000  0.000000  0.000000 -1.077882
  0C   2px       -1.285745  0.000000  0.000000 -1.488331  0.001606  0.000000
  0C   2py        0.000000  1.285740  1.488683 -0.000000 -0.000000  0.000000
  0C   1dz2      -0.000006  0.000000  0.000000 -0.000108 -0.113053  0.000000
  0C   1dxz       0.000000  0.000000  0.000000  0.000000  0.000000  0.000040
  0C   1dyz       0.000000  0.000000  0.000000  0.000000  0.000000 -0.000000
  0C   1dx2y2     0.009557  0.000000 -0.000000  0.088279 -0.000139  0.000000
  0C   1dxy      -0.000000  0.009562  0.088239 -0.000000  0.000000  0.000000
  1H   1s         0.078439 -0.000000 -0.000000  0.825918  0.630404  0.000000
  1H   2s         1.989381 -0.000000 -0.000000  0.215852  0.392888  0.000000
  1H   1pz        0.000000  0.000000  0.000000  0.000000  0.000000  0.028354
  1H   1px        0.004470 -0.000000 -0.000000 -0.007973  0.027205  0.000000
  1H   1py       -0.000000  0.011884  0.079369  0.000000 -0.000000  0.000000
  2H   1s        -0.039232 -0.067939 -0.714590 -0.411962  0.631955  0.000000
  2H   2s        -0.994661 -1.722818 -0.186524 -0.106689  0.392991  0.000000
  2H   1pz        0.000000  0.000000  0.000000  0.000000  0.000000  0.028345
  2H   1px       -0.007793  0.007081  0.030895 -0.061552 -0.013520  0.000000
  2H   1py       -0.007077 -0.000383  0.025855 -0.030906  0.023617  0.000000
  3H   1s        -0.039232  0.067939  0.714590 -0.411962  0.631955  0.000000
  3H   2s        -0.994661  1.722818  0.186524 -0.106689  0.392991  0.000000
  3H   1pz        0.000000  0.000000  0.000000  0.000000  0.000000  0.028345
  3H   1px       -0.007793 -0.007081 -0.030895 -0.061552 -0.013520  0.000000
  3H   1py        0.007077 -0.000383  0.025855  0.030906 -0.023617  0.000000
                     12        13        14        15        16        17   
                   0.63838   0.68901   0.68904   1.19587   1.19589   1.48027
                   0.00000   0.00000   0.00000   0.00000   0.00000   0.00000
                  --------  --------  --------  --------  --------  --------
  0C   1s        -0.299565 -0.000000 -0.000231  0.000000  0.000000 -0.000000
  0C   2s         1.816330 -0.000000  0.001408  0.000000  0.000000  0.000000
  0C   3s        -4.171724  0.000000 -0.003263  0.000000  0.000000 -0.000000
  0C   1pz        0.000000  0.000000  0.000000  0.000000  0.000045  0.000000
  0C   1px        0.000601 -0.000000 -0.930525  0.000000  0.000000 -0.000000
  0C   1py       -0.000000 -0.930458 -0.000000  0.000000  0.000000  0.000002
  0C   2pz        0.000000  0.000000  0.000000  0.000000 -0.000032  0.000000
  0C   2px       -0.000894  0.000000  1.631806  0.000000  0.000000  0.000000
  0C   2py       -0.000000  1.631549 -0.000000  0.000000  0.000000 -0.000006
  0C   1dz2       0.106015  0.000000  0.000057  0.000000  0.000000 -0.000000
  0C   1dxz       0.000000  0.000000  0.000000 -0.000000 -0.437213  0.000000
  0C   1dyz       0.000000  0.000000  0.000000  0.437270  0.000000  0.000000
  0C   1dx2y2    -0.000157  0.000000  0.147819  0.000000  0.000000  0.000000
  0C   1dxy       0.000000 -0.147851  0.000000  0.000000  0.000000  0.000010
  1H   1s        -0.426820 -0.000000  0.579311  0.000000  0.000000 -0.000000
  1H   2s         1.396908 -0.000000 -1.790168  0.000000  0.000000  0.000000
  1H   1pz        0.000000  0.000000  0.000000 -0.000000 -0.601068  0.000000
  1H   1px       -0.103621  0.000000  0.174250  0.000000  0.000000 -0.000000
  1H   1py        0.000000 -0.068936  0.000000  0.000000  0.000000 -0.589166
  2H   1s        -0.425949  0.502052 -0.290034  0.000000  0.000000  0.000001
  2H   2s         1.395007 -1.551219  0.896644  0.000000  0.000000  0.000004
  2H   1pz        0.000000  0.000000  0.000000  0.520508  0.300535  0.000000
  2H   1px        0.051782 -0.105328 -0.008056  0.000000  0.000000  0.510232
  2H   1py       -0.089542  0.113506 -0.105388  0.000000  0.000000  0.294580
  3H   1s        -0.425949 -0.502052 -0.290034  0.000000  0.000000 -0.000001
  3H   2s         1.395007  1.551219  0.896644  0.000000  0.000000 -0.000004
  3H   1pz        0.000000  0.000000  0.000000 -0.520508  0.300535  0.000000
  3H   1px        0.051782  0.105328 -0.008056  0.000000  0.000000 -0.510232
  3H   1py        0.089542  0.113506  0.105388  0.000000  0.000000  0.294580
                     18        19        20        21        22        23   
                   1.60527   1.60528   1.73296   1.82294   2.21749   2.21756
                   0.00000   0.00000   0.00000   0.00000   0.00000   0.00000
                  --------  --------  --------  --------  --------  --------
  0C   1s        -0.000000  0.000015  0.000000 -0.080860  0.000000  0.000000
  0C   2s         0.000000 -0.000050  0.000000  0.726787  0.000000  0.000000
  0C   3s        -0.000000  0.000171  0.000000 -0.600772  0.000000  0.000000
  0C   1pz        0.000000  0.000000  0.241100  0.000000  0.000000  0.000034
  0C   1px        0.000000  0.148542  0.000000 -0.000025  0.000000  0.000000
  0C   1py        0.148505  0.000000  0.000000  0.000000  0.000000  0.000000
  0C   2pz        0.000000  0.000000  0.402170  0.000000  0.000000 -0.000013
  0C   2px       -0.000000 -1.084638  0.000000  0.000100  0.000000  0.000000
  0C   2py       -1.084567 -0.000000  0.000000 -0.000000  0.000000  0.000000
  0C   1dz2      -0.000000  0.000040  0.000000  0.760322  0.000000  0.000000
  0C   1dxz       0.000000  0.000000  0.000022  0.000000  0.000000 -1.012429
  0C   1dyz       0.000000  0.000000 -0.000000  0.000000  1.012405  0.000000
  0C   1dx2y2    -0.000000 -0.324924  0.000000 -0.000006  0.000000  0.000000
  0C   1dxy       0.324913  0.000000  0.000000 -0.000000  0.000000  0.000000
  1H   1s        -0.000000  0.498865  0.000000  0.154595  0.000000  0.000000
  1H   2s         0.000000  0.353926  0.000000  0.004363  0.000000  0.000000
  1H   1pz        0.000000  0.000000 -0.654148  0.000000 -0.000000  0.674433
  1H   1px       -0.000000  0.332630  0.000000  0.352591  0.000000  0.000000
  1H   1py        0.653364  0.000000  0.000000 -0.000000  0.000000  0.000000
  2H   1s         0.432018 -0.249426  0.000000  0.154631  0.000000  0.000000
  2H   2s         0.306513 -0.177042  0.000000  0.004436  0.000000  0.000000
  2H   1pz        0.000000  0.000000 -0.654126  0.000000 -0.584116 -0.337236
  2H   1px        0.138888  0.573156  0.000000 -0.176349  0.000000  0.000000
  2H   1py        0.412798  0.138913  0.000000  0.305347  0.000000  0.000000
  3H   1s        -0.432018 -0.249426  0.000000  0.154631  0.000000  0.000000
  3H   2s        -0.306513 -0.177042  0.000000  0.004436  0.000000  0.000000
  3H   1pz        0.000000  0.000000 -0.654126  0.000000  0.584116 -0.337236
  3H   1px       -0.138888  0.573156  0.000000 -0.176349  0.000000  0.000000
  3H   1py        0.412798 -0.138913  0.000000 -0.305347  0.000000  0.000000
                     24        25        26        27        28   
                   2.23693   2.23693   2.84747   2.91506   2.91508
                   0.00000   0.00000   0.00000   0.00000   0.00000
                  --------  --------  --------  --------  --------
  0C   1s         0.000005 -0.000000  0.269841  0.000030  0.000000
  0C   2s        -0.000039 -0.000000 -1.679668 -0.000163 -0.000000
  0C   3s         0.000023  0.000000 -1.091035 -0.000015  0.000000
  0C   1pz        0.000000  0.000000  0.000000  0.000000  0.000000
  0C   1px        0.731800 -0.000000  0.000071 -1.092020  0.000000
  0C   1py       -0.000000  0.731812 -0.000000  0.000000  1.092016
  0C   2pz        0.000000  0.000000  0.000000  0.000000  0.000000
  0C   2px        0.692034  0.000000  0.000016 -0.449554  0.000000
  0C   2py        0.000000  0.692038 -0.000000 -0.000000  0.449548
  0C   1dz2      -0.000008 -0.000000  1.041420  0.000065  0.000000
  0C   1dxz       0.000000  0.000000  0.000000  0.000000  0.000000
  0C   1dyz       0.000000  0.000000  0.000000  0.000000  0.000000
  0C   1dx2y2    -0.365015 -0.000000  0.000103 -1.392258  0.000000
  0C   1dxy      -0.000000  0.365002 -0.000000  0.000000 -1.392263
  1H   1s        -0.282783  0.000000  0.788020  1.059513  0.000000
  1H   2s        -0.680432 -0.000000  0.336226  0.297321 -0.000000
  1H   1pz        0.000000  0.000000  0.000000  0.000000  0.000000
  1H   1px        0.728140  0.000000 -0.914038 -1.082415  0.000000
  1H   1py       -0.000000 -0.685326 -0.000000  0.000000  0.310661
  2H   1s         0.141399 -0.244907  0.788126 -0.529675 -0.917517
  2H   2s         0.340212 -0.589274  0.336240 -0.148644 -0.257471
  2H   1pz        0.000000  0.000000  0.000000  0.000000  0.000000
  2H   1px       -0.331955 -0.612064  0.457096 -0.503547 -0.334141
  2H   1py       -0.612072  0.374794 -0.791661  0.334090  0.889420
  3H   1s         0.141399  0.244907  0.788126 -0.529675  0.917517
  3H   2s         0.340212  0.589274  0.336240 -0.148644  0.257471
  3H   1pz        0.000000  0.000000  0.000000  0.000000  0.000000
  3H   1px       -0.331955  0.612064  0.457096 -0.503547  0.334141
  3H   1py        0.612072  0.374794  0.791661 -0.334090  0.889420
             **** ENERGY FILE WAS UPDATED (ch3.en.tmp) ****
Finished Guess after   0.0 sec
Maximum memory used throughout the entire GUESS-calculation: 3.6 MB

-------------------------------------------------------------------------------------------
                                      ORCA LEAN-SCF
                              memory conserving SCF solver
-------------------------------------------------------------------------------------------

----------------------------------------D-I-I-S--------------------------------------------
Iteration    Energy (Eh)           Delta-E    RMSDP     MaxDP     DIISErr   Damp  Time(sec)
-------------------------------------------------------------------------------------------
    1    -39.7730279988330793     0.00e+00  3.78e-04  6.00e-03  2.37e-02  0.700   0.1

                         ----------------------------
                         !        ITERATION     0   !
                         ----------------------------
   Total Energy        :     -39.773027998833 Eh
   Energy Change       :      39.773027998833 Eh
   MAX-DP              :       0.006002279844
   RMS-DP              :       0.000378432747
   Actual Damping      :       0.7000
   Actual Level Shift  :       0.2500 Eh
   alpha HOMO          :      -0.4012 Eh
   alpha LUMO          :       0.1249 Eh
   beta HOMO           :      -0.2289 Eh
   beta LUMO           :       0.0806 Eh
   Int. Num. El.       :     8.99999767 (UP=    4.99999810 DN=    3.99999956)
   Exchange            :    -4.91037414 Eh
   Correlation         :    -0.31158231 Eh
   DIIS-Error          :       0.023713782848

    2    -39.7795444496661261    -6.52e-03  3.63e-04  4.92e-03  5.07e-03  0.700   0.0

                         ----------------------------
                         !        ITERATION     1   !
                         ----------------------------
   Total Energy        :     -39.779544449666 Eh
   Energy Change       :       0.006516450833 Eh
   MAX-DP              :       0.004922462114
   RMS-DP              :       0.000362793773
   Actual Damping      :       0.7000
   Actual Level Shift  :       0.2500 Eh
   alpha HOMO          :      -0.4050 Eh
   alpha LUMO          :       0.1189 Eh
   beta HOMO           :      -0.2289 Eh
   beta LUMO           :       0.0806 Eh
   Int. Num. El.       :     8.99999768 (UP=    4.99999810 DN=    3.99999957)
   Exchange            :    -4.90591519 Eh
   Correlation         :    -0.31119604 Eh
   DIIS-Error          :       0.005071999969

                               ***Turning on AO-DIIS***
                              *** Initializing SOSCF ***
---------------------------------------S-O-S-C-F--------------------------------------
Iteration    Energy (Eh)           Delta-E    RMSDP     MaxDP     MaxGrad    Time(sec)
--------------------------------------------------------------------------------------
    3    -39.7795437721437324     6.78e-07  8.98e-04  1.01e-02  1.70e-03     0.1

                         ----------------------------
                         !        ITERATION     2   !
                         ----------------------------
   Total Energy        :     -39.779543772144 Eh
   Energy Change       :      -0.000000677522 Eh
   MAX-DP              :       0.010074584836
   RMS-DP              :       0.000898217089
   Orbital gradient    :       0.001699762660
   Orbital Rotation    :       0.001699762660
   alpha HOMO          :      -0.4083 Eh
   alpha LUMO          :      -0.1363 Eh
   beta HOMO           :      -0.2289 Eh
   beta LUMO           :       0.0806 Eh
   Int. Num. El.       :     8.99999770 (UP=    4.99999811 DN=    3.99999959)
   Exchange            :    -4.90191245 Eh
   Correlation         :    -0.31083956 Eh

    4    -39.7753453423801986     4.20e-03  6.90e-04  9.86e-03  5.77e-03     0.0

                         ----------------------------
                         !        ITERATION     3   !
                         ----------------------------
   Total Energy        :     -39.775345342380 Eh
   Energy Change       :      -0.004198429764 Eh
   MAX-DP              :       0.009857148166
   RMS-DP              :       0.000690388123
   Orbital gradient    :       0.005773167975
   Orbital Rotation    :       0.006910380979
   alpha HOMO          :      -0.4083 Eh
   alpha LUMO          :      -0.1363 Eh
   beta HOMO           :      -0.2289 Eh
   beta LUMO           :       0.0806 Eh
   Int. Num. El.       :     8.99999777 (UP=    4.99999813 DN=    3.99999964)
   Exchange            :    -4.89382738 Eh
   Correlation         :    -0.31004496 Eh

    5    -39.7753943068844080    -4.90e-05  3.09e-04  4.74e-03  4.66e-03     0.1

                         ----------------------------
                         !        ITERATION     4   !
                         ----------------------------
   Total Energy        :     -39.775394306884 Eh
   Energy Change       :       0.000048964504 Eh
   MAX-DP              :       0.004739667248
   RMS-DP              :       0.000308508691
   Orbital gradient    :       0.004655955900
   Orbital Rotation    :       0.003581789257
   alpha HOMO          :      -0.4083 Eh
   alpha LUMO          :      -0.1363 Eh
   beta HOMO           :      -0.2289 Eh
   beta LUMO           :       0.0806 Eh
   Int. Num. El.       :     8.99999779 (UP=    4.99999816 DN=    3.99999963)
   Exchange            :    -4.90627822 Eh
   Correlation         :    -0.31080235 Eh

    6    -39.7755406120466830    -1.46e-04  3.62e-05  7.91e-04  3.99e-04     0.1

                         ----------------------------
                         !        ITERATION     5   !
                         ----------------------------
   Total Energy        :     -39.775540612047 Eh
   Energy Change       :       0.000146305162 Eh
   MAX-DP              :       0.000790956920
   RMS-DP              :       0.000036193411
   Orbital gradient    :       0.000399378791
   Orbital Rotation    :       0.000625202699
   alpha HOMO          :      -0.4083 Eh
   alpha LUMO          :      -0.1363 Eh
   beta HOMO           :      -0.2289 Eh
   beta LUMO           :       0.0806 Eh
   Int. Num. El.       :     8.99999780 (UP=    4.99999816 DN=    3.99999964)
   Exchange            :    -4.90040475 Eh
   Correlation         :    -0.31044468 Eh

    7    -39.7755415139571369    -9.02e-07  4.01e-05  8.96e-04  2.19e-04     0.0
                 **** Energy Check signals convergence ****

                         ----------------------------
                         !        ITERATION     6   !
                         ----------------------------
   Total Energy        :     -39.775541513957 Eh
   Energy Change       :       0.000000901910 Eh
   MAX-DP              :       0.000895985647
   RMS-DP              :       0.000040064629
   Orbital gradient    :       0.000218639547
   Orbital Rotation    :       0.000708482992
   alpha HOMO          :      -0.4083 Eh
   alpha LUMO          :      -0.1363 Eh
   beta HOMO           :      -0.2289 Eh
   beta LUMO           :       0.0806 Eh
   Int. Num. El.       :     8.99999780 (UP=    4.99999816 DN=    3.99999964)
   Exchange            :    -4.90047272 Eh
   Correlation         :    -0.31044435 Eh


               *****************************************************
               *                     SUCCESS                       *
               *           SCF CONVERGED AFTER   7 CYCLES          *
               *****************************************************

             **** ENERGY FILE WAS UPDATED (ch3.en.tmp) ****

----------------
TOTAL SCF ENERGY
----------------

Total Energy       :        -39.77554185763974 Eh           -1082.34752 eV

Components:
Nuclear Repulsion  :          9.64581334725570 Eh             262.47593 eV
Electronic Energy  :        -49.42135520489544 Eh           -1344.82344 eV
One Electron Energy:        -71.54814684769448 Eh           -1946.92406 eV
Two Electron Energy:         22.12679164279904 Eh             602.10061 eV

Virial components:
Potential Energy   :        -79.05088327657569 Eh           -2151.08389 eV
Kinetic Energy     :         39.27534141893595 Eh            1068.73637 eV
Virial Ratio       :          2.01273573750431

DFT components:
N(Alpha)           :        4.999998166055 electrons
N(Beta)            :        3.999999638762 electrons
N(Total)           :        8.999997804817 electrons
E(X)               :       -4.900582480916 Eh       
E(C)               :       -0.310447010268 Eh       
E(XC)              :       -5.211029491184 Eh       

---------------
SCF CONVERGENCE
---------------

  Last Energy change         ...    9.0191e-07  Tolerance :   1.0000e-06
  Last MAX-Density change    ...    8.9599e-04  Tolerance :   1.0000e-05
  Last RMS-Density change    ...    4.0065e-05  Tolerance :   1.0000e-06
  Last DIIS Error            ...    1.6998e-03  Tolerance :   1.0000e-05
  Last Orbital Gradient      ...    2.1864e-04  Tolerance :   5.0000e-05
  Last Orbital Rotation      ...    7.0848e-04  Tolerance :   5.0000e-05


----------------
ORBITAL ENERGIES
----------------

  NO   OCC          E(Eh)            E(eV)    Irrep 
   0   2.0000     -10.187621      -277.2193    1-A1
   1   2.0000      -0.652927       -17.7670    2-A1
   2   2.0000      -0.410871       -11.1804    3-A1
   3   2.0000      -0.410871       -11.1804    1-B1
   4   1.0000      -0.226654        -6.1676    1-B2
   5   0.0000       0.080638         2.1943    4-A1
   6   0.0000       0.145768         3.9666    5-A1
   7   0.0000       0.145770         3.9666    2-B1
   8   0.0000       0.443522        12.0688    6-A1
   9   0.0000       0.443525        12.0689    3-B1
  10   0.0000       0.468063        12.7366    7-A1
  11   0.0000       0.480651        13.0792    2-B2
  12   0.0000       0.637965        17.3599    8-A1
  13   0.0000       0.688695        18.7403    9-A1
  14   0.0000       0.688696        18.7404    4-B1
  15   0.0000       1.195461        32.5301    1-A2
  16   0.0000       1.195461        32.5301    3-B2
  17   0.0000       1.477960        40.2173    5-B1
  18   0.0000       1.603800        43.6416   10-A1
  19   0.0000       1.603802        43.6417    6-B1
  20   0.0000       1.730656        47.0935    4-B2
  21   0.0000       1.823168        49.6109   11-A1
  22   0.0000       2.235538        60.8321   12-A1
  23   0.0000       2.235538        60.8321    7-B1
  24   0.0000       2.217676        60.3460    2-A2
  25   0.0000       2.217676        60.3460    5-B2
  26   0.0000       2.846445        77.4557   13-A1
  27   0.0000       2.914834        79.3167    8-B1
  28   0.0000       2.914834        79.3167   14-A1
------------------
MOLECULAR ORBITALS (RHF, ROHF)
------------------
                      0         1         2         3         4         5   
                 -10.18762  -0.65293  -0.41087  -0.41087  -0.22665   0.08064
                   2.00000   2.00000   2.00000   2.00000   1.00000   0.00000
                  --------  --------  --------  --------  --------  --------
  0C   1s        -0.988267  0.255236  0.000000  0.000000  0.000000 -0.159680
  0C   2s        -0.048300 -0.497650 -0.000000 -0.000000  0.000000  0.312015
  0C   3s         0.031294 -0.183465  0.000001 -0.000000  0.000000  2.472775
  0C   1pz        0.000000  0.000000  0.000000  0.000000  0.611950  0.000000
  0C   1px        0.000000 -0.000000  0.445917  0.000000  0.000000 -0.000002
  0C   1py       -0.000000 -0.000000 -0.000000  0.445918  0.000000  0.000000
  0C   2pz        0.000000  0.000000  0.000000  0.000000  0.511456  0.000000
  0C   2px        0.000000  0.000000  0.155163 -0.000000  0.000000 -0.000004
  0C   2py       -0.000000 -0.000000 -0.000000  0.155162  0.000000  0.000000
  0C   1dz2       0.002963  0.005830 -0.000000  0.000000  0.000000  0.002203
  0C   1dxz       0.000000  0.000000  0.000000  0.000000 -0.000000  0.000000
  0C   1dyz       0.000000  0.000000  0.000000  0.000000  0.000000  0.000000
  0C   1dx2y2     0.000000 -0.000000  0.018431  0.000000  0.000000 -0.000000
  0C   1dxy      -0.000000  0.000000  0.000000 -0.018431  0.000000 -0.000000
  1H   1s         0.004571 -0.198827  0.375002 -0.000000  0.000000 -0.056207
  1H   2s        -0.007225 -0.036031  0.155119 -0.000000  0.000000 -1.216019
  1H   1pz        0.000000  0.000000  0.000000  0.000000  0.018743  0.000000
  1H   1px       -0.002967  0.022541 -0.012162  0.000000  0.000000 -0.008350
  1H   1py       -0.000000  0.000000 -0.000000  0.013037  0.000000 -0.000000
  2H   1s         0.004571 -0.198826 -0.187501  0.324762  0.000000 -0.056206
  2H   2s        -0.007225 -0.036031 -0.077560  0.134337  0.000000 -1.216030
  2H   1pz        0.000000  0.000000  0.000000  0.000000  0.018743  0.000000
  2H   1px        0.001483 -0.011270  0.006737  0.010912  0.000000  0.004175
  2H   1py       -0.002569  0.019521  0.010912 -0.005863  0.000000 -0.007231
  3H   1s         0.004571 -0.198826 -0.187501 -0.324762  0.000000 -0.056206
  3H   2s        -0.007225 -0.036031 -0.077560 -0.134337  0.000000 -1.216030
  3H   1pz        0.000000  0.000000  0.000000  0.000000  0.018743  0.000000
  3H   1px        0.001483 -0.011270  0.006737 -0.010912  0.000000  0.004175
  3H   1py        0.002569 -0.019521 -0.010912 -0.005863  0.000000  0.007231
                      6         7         8         9        10        11   
                   0.14577   0.14577   0.44352   0.44352   0.46806   0.48065
                   0.00000   0.00000   0.00000   0.00000   0.00000   0.00000
                  --------  --------  --------  --------  --------  --------
  0C   1s         0.000001  0.000000 -0.000001 -0.000000  0.068854  0.000000
  0C   2s        -0.000006 -0.000000  0.000013  0.000000 -0.916447  0.000000
  0C   3s         0.000004 -0.000000 -0.000041  0.000000  2.807373  0.000000
  0C   1pz        0.000000  0.000000  0.000000  0.000000  0.000000 -0.996189
  0C   1px       -0.375354  0.000000 -0.288304  0.000000  0.000000  0.000000
  0C   1py        0.000000 -0.375355  0.000000 -0.288304  0.000000  0.000000
  0C   2pz        0.000000  0.000000  0.000000  0.000000  0.000000  1.078279
  0C   2px       -1.291917 -0.000000  1.476556  0.000000  0.000016  0.000000
  0C   2py        0.000000 -1.291919  0.000000  1.476548  0.000000  0.000000
  0C   1dz2      -0.000000 -0.000000 -0.000001  0.000000  0.105062  0.000000
  0C   1dxz       0.000000  0.000000  0.000000  0.000000  0.000000  0.000000
  0C   1dyz       0.000000  0.000000  0.000000  0.000000  0.000000  0.000000
  0C   1dx2y2     0.008766 -0.000000 -0.088077 -0.000000 -0.000002  0.000000
  0C   1dxy      -0.000000 -0.008767  0.000000  0.088078 -0.000000  0.000000
  1H   1s         0.069543  0.000000 -0.829587 -0.000000 -0.637584  0.000000
  1H   2s         1.995826  0.000000 -0.202387 -0.000000 -0.391593  0.000000
  1H   1pz        0.000000  0.000000  0.000000  0.000000  0.000000 -0.030967
  1H   1px        0.005138  0.000000  0.006811 -0.000000 -0.030148  0.000000
  1H   1py       -0.000000 -0.012399 -0.000000  0.081171  0.000000  0.000000
  2H   1s        -0.034773  0.060231  0.414807 -0.718450 -0.637564  0.000000
  2H   2s        -0.997911  1.728432  0.101203 -0.175270 -0.391592  0.000000
  2H   1pz        0.000000  0.000000  0.000000  0.000000  0.000000 -0.030967
  2H   1px       -0.008015 -0.007594  0.062579  0.032199  0.015075  0.000000
  2H   1py       -0.007593  0.000754  0.032199  0.025401 -0.026107  0.000000
  3H   1s        -0.034773 -0.060231  0.414807  0.718450 -0.637564  0.000000
  3H   2s        -0.997911 -1.728432  0.101203  0.175270 -0.391592  0.000000
  3H   1pz        0.000000  0.000000  0.000000  0.000000  0.000000 -0.030967
  3H   1px       -0.008015  0.007594  0.062579 -0.032199  0.015075  0.000000
  3H   1py        0.007593  0.000754 -0.032199  0.025401  0.026107  0.000000
                     12        13        14        15        16        17   
                   0.63797   0.68870   0.68870   1.19546   1.19546   1.47796
                   0.00000   0.00000   0.00000   0.00000   0.00000   0.00000
                  --------  --------  --------  --------  --------  --------
  0C   1s        -0.304016  0.000004  0.000000  0.000000  0.000000  0.000000
  0C   2s         1.828825 -0.000024  0.000000  0.000000  0.000000 -0.000000
  0C   3s        -4.158742  0.000056 -0.000000  0.000000  0.000000  0.000000
  0C   1pz        0.000000  0.000000  0.000000 -0.000000  0.000000  0.000000
  0C   1px       -0.000010 -0.934643  0.000000  0.000000  0.000000  0.000000
  0C   1py       -0.000000 -0.000000  0.934643  0.000000  0.000000 -0.000000
  0C   2pz        0.000000  0.000000  0.000000 -0.000000  0.000000  0.000000
  0C   2px        0.000016  1.637118 -0.000000  0.000000  0.000000 -0.000000
  0C   2py       -0.000000 -0.000000 -1.637122  0.000000  0.000000  0.000003
  0C   1dz2       0.091055 -0.000000 -0.000000  0.000000  0.000000  0.000000
  0C   1dxz       0.000000  0.000000  0.000000  0.000000  0.420828  0.000000
  0C   1dyz       0.000000  0.000000  0.000000 -0.420828 -0.000000  0.000000
  0C   1dx2y2     0.000002  0.147155 -0.000000  0.000000  0.000000 -0.000000
  0C   1dxy       0.000000  0.000000  0.147154  0.000000  0.000000 -0.000001
  1H   1s        -0.422076  0.570000  0.000000  0.000000  0.000000  0.000000
  1H   2s         1.384220 -1.784636  0.000000  0.000000  0.000000 -0.000000
  1H   1pz        0.000000  0.000000  0.000000  0.000000  0.611868  0.000000
  1H   1px       -0.106543  0.177493 -0.000000  0.000000  0.000000  0.000000
  1H   1py        0.000000  0.000000  0.068657  0.000000  0.000000  0.589163
  2H   1s        -0.422085 -0.284996 -0.493632  0.000000  0.000000 -0.000001
  2H   2s         1.384245  0.892293  1.545529  0.000000  0.000000 -0.000001
  2H   1pz        0.000000  0.000000  0.000000 -0.529893 -0.305934  0.000000
  2H   1px        0.053272 -0.007121  0.106586  0.000000  0.000000 -0.510232
  2H   1py       -0.092272 -0.106585 -0.115955  0.000000  0.000000 -0.294584
  3H   1s        -0.422085 -0.284996  0.493632  0.000000  0.000000  0.000001
  3H   2s         1.384245  0.892293 -1.545529  0.000000  0.000000  0.000001
  3H   1pz        0.000000  0.000000  0.000000  0.529893 -0.305934  0.000000
  3H   1px        0.053272 -0.007121 -0.106586  0.000000  0.000000  0.510232
  3H   1py        0.092272  0.106585 -0.115955  0.000000  0.000000 -0.294584
                     18        19        20        21        22        23   
                   1.60380   1.60380   1.73066   1.82317   2.23554   2.23554
                   0.00000   0.00000   0.00000   0.00000   0.00000   0.00000
                  --------  --------  --------  --------  --------  --------
  0C   1s        -0.000000  0.000000  0.000000 -0.092215 -0.000000 -0.000000
  0C   2s         0.000001 -0.000000  0.000000  0.779089  0.000003 -0.000000
  0C   3s        -0.000000  0.000000  0.000000 -0.597104 -0.000001  0.000000
  0C   1pz        0.000000  0.000000 -0.245344  0.000000  0.000000  0.000000
  0C   1px        0.149997 -0.000000  0.000000  0.000000 -0.736243 -0.000000
  0C   1py        0.000000 -0.150000  0.000000  0.000000  0.000000  0.736243
  0C   2pz        0.000000  0.000000 -0.398192  0.000000  0.000000  0.000000
  0C   2px       -1.088296  0.000000  0.000000 -0.000000 -0.690108  0.000000
  0C   2py       -0.000000  1.088298  0.000000 -0.000000 -0.000000  0.690111
  0C   1dz2      -0.000000  0.000000  0.000000  0.746237 -0.000001 -0.000000
  0C   1dxz       0.000000  0.000000 -0.000000  0.000000  0.000000  0.000000
  0C   1dyz       0.000000  0.000000  0.000000  0.000000  0.000000  0.000000
  0C   1dx2y2    -0.321149  0.000000  0.000000 -0.000000  0.364187 -0.000000
  0C   1dxy       0.000000 -0.321149  0.000000 -0.000000  0.000000  0.364187
  1H   1s         0.496040  0.000000  0.000000  0.131209  0.284927  0.000000
  1H   2s         0.357382 -0.000000  0.000000  0.006357  0.679004 -0.000000
  1H   1pz        0.000000  0.000000  0.654007  0.000000  0.000000  0.000000
  1H   1px        0.333283  0.000000  0.000000  0.364962 -0.729978  0.000000
  1H   1py        0.000000 -0.655583  0.000000 -0.000000  0.000000 -0.683246
  2H   1s        -0.248020 -0.429584  0.000000  0.131209 -0.142464 -0.246755
  2H   2s        -0.178691 -0.309502  0.000000  0.006356 -0.339502 -0.588036
  2H   1pz        0.000000  0.000000  0.654007  0.000000  0.000000  0.000000
  2H   1px        0.575007 -0.139557  0.000000 -0.182481  0.329938 -0.611944
  2H   1py        0.139560 -0.413857  0.000000  0.316066  0.611945  0.376672
  3H   1s        -0.248020  0.429584  0.000000  0.131209 -0.142464  0.246755
  3H   2s        -0.178691  0.309502  0.000000  0.006356 -0.339502  0.588036
  3H   1pz        0.000000  0.000000  0.654007  0.000000  0.000000  0.000000
  3H   1px        0.575007  0.139557  0.000000 -0.182481  0.329938  0.611944
  3H   1py       -0.139560 -0.413857  0.000000 -0.316066 -0.611945  0.376672
                     24        25        26        27        28   
                   2.21768   2.21768   2.84644   2.91483   2.91483
                   0.00000   0.00000   0.00000   0.00000   0.00000
                  --------  --------  --------  --------  --------
  0C   1s         0.000000  0.000000  0.267100  0.000000  0.000002
  0C   2s         0.000000  0.000000 -1.663481 -0.000000 -0.000012
  0C   3s         0.000000  0.000000 -1.100636  0.000000 -0.000007
  0C   1pz        0.000000  0.000000  0.000000  0.000000  0.000000
  0C   1px        0.000000  0.000000 -0.000008  0.000000  1.092408
  0C   1py        0.000000  0.000000 -0.000000  1.092408 -0.000000
  0C   2pz        0.000000  0.000000  0.000000  0.000000  0.000000
  0C   2px        0.000000  0.000000 -0.000005  0.000000  0.449086
  0C   2py        0.000000  0.000000 -0.000000  0.449087  0.000000
  0C   1dz2       0.000000  0.000000  1.053859  0.000000  0.000007
  0C   1dxz       0.000000 -1.019349  0.000000  0.000000  0.000000
  0C   1dyz       1.019349  0.000000  0.000000  0.000000  0.000000
  0C   1dx2y2     0.000000  0.000000 -0.000009  0.000000  1.393443
  0C   1dxy       0.000000  0.000000 -0.000000 -1.393443 -0.000000
  1H   1s         0.000000  0.000000  0.788277  0.000000 -1.059748
  1H   2s         0.000000  0.000000  0.337080 -0.000000 -0.296201
  1H   1pz       -0.000000  0.664664  0.000000  0.000000  0.000000
  1H   1px        0.000000  0.000000 -0.908815  0.000000  1.080390
  1H   1py        0.000000  0.000000 -0.000000  0.310124 -0.000000
  2H   1s         0.000000  0.000000  0.788265 -0.917774  0.529883
  2H   2s         0.000000  0.000000  0.337075 -0.256520  0.148104
  2H   1pz       -0.575616 -0.332332  0.000000  0.000000  0.000000
  2H   1px        0.000000  0.000000  0.454400 -0.333538  0.502696
  2H   1py        0.000000  0.000000 -0.787046  0.887828 -0.333543
  3H   1s         0.000000  0.000000  0.788265  0.917774  0.529883
  3H   2s         0.000000  0.000000  0.337075  0.256520  0.148104
  3H   1pz        0.575616 -0.332332  0.000000  0.000000  0.000000
  3H   1px        0.000000  0.000000  0.454400  0.333538  0.502696
  3H   1py        0.000000  0.000000  0.787046  0.887828  0.333543


-------
DENSITY
-------
                  0          1          2          3          4          5    
      0       1.041816  -0.079285  -0.077754   0.000000  -0.000000   0.000000
      1      -0.079285   0.249988   0.089790   0.000000  -0.000000   0.000000
      2      -0.077754   0.089790   0.034639   0.000000   0.000000  -0.000000
      3       0.000000   0.000000   0.000000   0.000000   0.000000   0.000000
      4      -0.000000  -0.000000   0.000000   0.000000   0.198842   0.000000
      5       0.000000   0.000000  -0.000000   0.000000   0.000000   0.198843
      6       0.000000   0.000000   0.000000   0.000000   0.000000   0.000000
      7       0.000000  -0.000000   0.000000   0.000000   0.069190  -0.000000
      8       0.000000  -0.000000  -0.000000   0.000000  -0.000000   0.069190
      9      -0.001440  -0.003044  -0.000977   0.000000  -0.000000   0.000000
     10       0.000000   0.000000   0.000000   0.000000   0.000000   0.000000
     11       0.000000   0.000000   0.000000   0.000000   0.000000   0.000000
     12      -0.000000  -0.000000   0.000000   0.000000   0.008219   0.000000
     13       0.000000  -0.000000  -0.000000   0.000000   0.000000  -0.008219
     14      -0.055265   0.098725   0.036621   0.000000   0.167220  -0.000000
     15      -0.002056   0.018280   0.006384   0.000000   0.069170  -0.000000
     16       0.000000   0.000000   0.000000   0.000000   0.000000   0.000000
     17       0.008685  -0.011074  -0.004228   0.000000  -0.005423   0.000000
     18       0.000000  -0.000000  -0.000000   0.000000  -0.000000   0.005813
     19      -0.055265   0.098725   0.036620   0.000000  -0.083610   0.144817
     20      -0.002056   0.018280   0.006384   0.000000  -0.034585   0.059903
     21       0.000000   0.000000   0.000000   0.000000   0.000000   0.000000
     22      -0.004343   0.005537   0.002114   0.000000   0.003004   0.004866
     23       0.007522  -0.009591  -0.003662   0.000000   0.004866  -0.002614
     24      -0.055265   0.098725   0.036620   0.000000  -0.083610  -0.144817
     25      -0.002056   0.018280   0.006384   0.000000  -0.034585  -0.059903
     26       0.000000   0.000000   0.000000   0.000000   0.000000   0.000000
     27      -0.004343   0.005537   0.002114   0.000000   0.003004  -0.004866
[...]
  1H   1s              0.0       0.0       4.4       0.0       9.2
  1H   2s              0.0       0.0       0.1       0.0       0.2
  1H   1pz             0.0      21.8       0.0       0.0       0.0
  1H   1px             0.0       0.0      13.0       0.0      16.5
  1H   1py             0.0       0.0       0.0       3.0       0.0
  2H   1s              0.0       0.0       4.4       6.9       2.3
  2H   2s              0.0       0.0       0.1       0.2       0.1
  2H   1pz            16.4       5.5       0.0       0.0       0.0
  2H   1px             0.0       0.0       3.2       1.0       5.3
  2H   1py             0.0       0.0       9.7      12.1       1.0
  3H   1s              0.0       0.0       4.4       6.9       2.3
  3H   2s              0.0       0.0       0.1       0.2       0.1
  3H   1pz            16.4       5.5       0.0       0.0       0.0
  3H   1px             0.0       0.0       3.2       1.0       5.3
  3H   1py             0.0       0.0       9.7      12.1       1.0

------------------------------------------
LOEWDIN REDUCED ORBITAL POPULATIONS PER MO
-------------------------------------------
THRESHOLD FOR PRINTING IS 0.1%%
                      0         1         2         3         4         5   
                 -10.18762  -0.65293  -0.41087  -0.41087  -0.22665   0.08064
                   2.00000   2.00000   2.00000   2.00000   1.00000   0.00000
                  --------  --------  --------  --------  --------  --------
 0 C  s              99.5      47.7       0.0       0.0       0.0      22.9
 0 C  pz              0.0       0.0       0.0       0.0      94.1       0.0
 0 C  px              0.0       0.0      53.1       0.0       0.0       0.0
 0 C  py              0.0       0.0       0.0      53.1       0.0       0.0
 0 C  dz2             0.0       0.1       0.0       0.0       0.0       1.5
 0 C  dx2y2           0.0       0.0       0.8       0.0       0.0       0.0
 0 C  dxy             0.0       0.0       0.0       0.8       0.0       0.0
 1 H  s               0.1      15.9      29.5       0.0       0.0      19.8
 1 H  pz              0.0       0.0       0.0       0.0       2.0       0.0
 1 H  px              0.1       1.5       0.7       0.0       0.0       5.3
 1 H  py              0.0       0.0       0.0       0.5       0.0       0.0
 2 H  s               0.1      15.9       7.4      22.1       0.0      19.8
 2 H  pz              0.0       0.0       0.0       0.0       2.0       0.0
 2 H  px              0.0       0.4       0.1       0.4       0.0       1.3
 2 H  py              0.1       1.1       0.4       0.2       0.0       4.0
 3 H  s               0.1      15.9       7.4      22.1       0.0      19.8
 3 H  pz              0.0       0.0       0.0       0.0       2.0       0.0
 3 H  px              0.0       0.4       0.1       0.4       0.0       1.3
 3 H  py              0.1       1.1       0.4       0.2       0.0       4.0

                      6         7         8         9        10        11   
                   0.14577   0.14577   0.44352   0.44352   0.46806   0.48065
                   0.00000   0.00000   0.00000   0.00000   0.00000   0.00000
                  --------  --------  --------  --------  --------  --------
 0 C  s               0.0       0.0       0.0       0.0      42.2       0.0
 0 C  pz              0.0       0.0       0.0       0.0       0.0      99.9
 0 C  px             16.8       0.0      50.6       0.0       0.0       0.0
 0 C  py              0.0      16.8       0.0      50.6       0.0       0.0
 0 C  dz2             0.0       0.0       0.0       0.0      10.8       0.0
 0 C  dx2y2           1.7       0.0      10.7       0.0       0.0       0.0
 0 C  dxy             0.0       1.7       0.0      10.7       0.0       0.0
 1 H  s              43.7       0.0      19.0       0.0      15.1       0.0
 1 H  px              7.8       0.0       0.0       0.0       0.5       0.0
 1 H  py              0.0       2.9       0.0       6.9       0.0       0.0
 2 H  s              10.9      32.8       4.7      14.2      15.1       0.0
 2 H  px              0.3       3.8       3.8       1.3       0.1       0.0
 2 H  py              3.8       2.8       1.3       0.4       0.4       0.0
 3 H  s              10.9      32.8       4.7      14.2      15.1       0.0
 3 H  px              0.3       3.8       3.8       1.3       0.1       0.0
 3 H  py              3.8       2.8       1.3       0.4       0.4       0.0

                     12        13        14        15        16        17   
                   0.63797   0.68870   0.68870   1.19546   1.19546   1.47796
                   0.00000   0.00000   0.00000   0.00000   0.00000   0.00000
                  --------  --------  --------  --------  --------  --------
 0 C  s              57.0       0.0       0.0       0.0       0.0       0.0
 0 C  px              0.0      47.5       0.0       0.0       0.0       0.0
 0 C  py              0.0       0.0      47.5       0.0       0.0       0.0
 0 C  dz2             1.3       0.0       0.0       0.0       0.0       0.0
 0 C  dxz             0.0       0.0       0.0       0.0      32.8       0.0
 0 C  dyz             0.0       0.0       0.0      32.8       0.0       0.0
 0 C  dx2y2           0.0       4.3       0.0       0.0       0.0       0.0
 0 C  dxy             0.0       0.0       4.3       0.0       0.0       0.0
 1 H  s              10.5      26.1       0.0       0.0       0.0       0.0
 1 H  pz              0.0       0.0       0.0       0.0      44.8       0.0
 1 H  px              3.4       6.0       0.0       0.0       0.0       0.0
 1 H  py              0.0       0.0       0.0       0.0       0.0      33.3
 2 H  s              10.5       6.5      19.6       0.0       0.0       0.0
 2 H  pz              0.0       0.0       0.0      33.6      11.2       0.0
 2 H  px              0.9       0.3       1.2       0.0       0.0      25.0
 2 H  py              2.6       1.2       3.3       0.0       0.0       8.3
 3 H  s              10.5       6.5      19.6       0.0       0.0       0.0
 3 H  pz              0.0       0.0       0.0      33.6      11.2       0.0
 3 H  px              0.9       0.3       1.2       0.0       0.0      25.0
 3 H  py              2.6       1.2       3.3       0.0       0.0       8.3

                     18        19        20        21        22        23   
                   1.60380   1.60380   1.73066   1.82317   2.23554   2.23554
                   0.00000   0.00000   0.00000   0.00000   0.00000   0.00000
                  --------  --------  --------  --------  --------  --------
 0 C  s               0.0       0.0       0.0       6.7       0.0       0.0
 0 C  pz              0.0       0.0       6.0       0.0       0.0       0.0
 0 C  px             10.4       0.0       0.0       0.0      11.4       0.0
 0 C  py              0.0      10.4       0.0       0.0       0.0      11.4
 0 C  dz2             0.0       0.0       0.0      62.7       0.0       0.0
 0 C  dx2y2          16.3       0.0       0.0       0.0      19.7       0.0
 0 C  dxy             0.0      16.3       0.0       0.0       0.0      19.7
 1 H  s               4.0       0.0       0.0       0.7       1.7       0.0
 1 H  pz              0.0       0.0      31.3       0.0       0.0       0.0
 1 H  px             13.7       0.0       0.0       9.5      22.0       0.0
 1 H  py              0.0      31.1       0.0       0.0       0.0      22.3
 2 H  s               1.0       3.0       0.0       0.7       0.4       1.3
 2 H  pz              0.0       0.0      31.3       0.0       0.0       0.0
 2 H  px             26.1       0.7       0.0       2.4       5.6      16.6
 2 H  py              0.7      17.4       0.0       7.1      16.6       5.5
 3 H  s               1.0       3.0       0.0       0.7       0.4       1.3
 3 H  pz              0.0       0.0      31.3       0.0       0.0       0.0
 3 H  px             26.1       0.7       0.0       2.4       5.6      16.6
 3 H  py              0.7      17.4       0.0       7.1      16.6       5.5

                     24        25        26        27        28   
                   2.21768   2.21768   2.84644   2.91483   2.91483
                   0.00000   0.00000   0.00000   0.00000   0.00000
                  --------  --------  --------  --------  --------
 0 C  s               0.0       0.0      24.0       0.0       0.0
 0 C  px              0.0       0.0       0.0       0.0      10.2
 0 C  py              0.0       0.0       0.0      10.2       0.0
 0 C  dz2             0.0       0.0      23.6       0.0       0.0
 0 C  dxz             0.0      67.2       0.0       0.0       0.0
 0 C  dyz            67.2       0.0       0.0       0.0       0.0
 0 C  dx2y2           0.0       0.0       0.0       0.0      46.6
 0 C  dxy             0.0       0.0       0.0      46.6       0.0
 1 H  s               0.0       0.0       4.5       0.0       9.4
 1 H  pz              0.0      21.8       0.0       0.0       0.0
 1 H  px              0.0       0.0      13.0       0.0      16.5
 1 H  py              0.0       0.0       0.0       3.0       0.0
 2 H  s               0.0       0.0       4.5       7.0       2.3
 2 H  pz             16.4       5.5       0.0       0.0       0.0
 2 H  px              0.0       0.0       3.2       1.0       5.3
 2 H  py              0.0       0.0       9.7      12.1       1.0
 3 H  s               0.0       0.0       4.5       7.0       2.3
 3 H  pz             16.4       5.5       0.0       0.0       0.0
 3 H  px              0.0       0.0       3.2       1.0       5.3
 3 H  py              0.0       0.0       9.7      12.1       1.0


                      *****************************
                      * MAYER POPULATION ANALYSIS *
                      *****************************

  NA   - Mulliken gross atomic population
  ZA   - Total nuclear charge
  QA   - Mulliken gross atomic charge
  VA   - Mayer's total valence
  BVA  - Mayer's bonded valence
  FA   - Mayer's free valence

  ATOM       NA         ZA         QA         VA         BVA        FA
  0 C      6.1719     6.0000    -0.1719     3.9562     2.9880     0.9682
  1 H      0.9427     1.0000     0.0573     0.9858     0.9858     0.0000
  2 H      0.9427     1.0000     0.0573     0.9858     0.9858     0.0000
  3 H      0.9427     1.0000     0.0573     0.9858     0.9858     0.0000

  Mayer bond orders larger than 0.100000
B(  0-C ,  1-H ) :   0.9960 B(  0-C ,  2-H ) :   0.9960 B(  0-C ,  3-H ) :   0.9960 


-------
TIMINGS
-------

Total SCF time: 0 days 0 hours 0 min 0 sec 

Total time                  ....       0.478 sec
Sum of individual times     ....       0.420 sec  ( 87.9%)

SCF preparation             ....       0.021 sec  (  4.4%)
Fock matrix formation       ....       0.370 sec  ( 77.3%)
  Startup                   ....       0.002 sec  (  0.6% of F)
  Coulomb+Exchange Fock     ....       0.080 sec  ( 21.5% of F)
  XC integration            ....       0.328 sec  ( 88.6% of F)
    Basis function eval.    ....       0.099 sec  ( 30.2% of XC)
    Density eval.           ....       0.060 sec  ( 18.5% of XC)
    XC-Functional eval.     ....       0.077 sec  ( 23.4% of XC)
    XC-Potential eval.      ....       0.062 sec  ( 18.8% of XC)
Diagonalization             ....       0.000 sec  (  0.0%)
Density matrix formation    ....       0.004 sec  (  0.8%)
Total Energy calculation    ....       0.000 sec  (  0.1%)
Population analysis         ....       0.007 sec  (  1.5%)
Orbital Transformation      ....       0.002 sec  (  0.3%)
Orbital Orthonormalization  ....       0.000 sec  (  0.0%)
DIIS solution               ....       0.012 sec  (  2.4%)
  MO trafo                  ....       0.007 sec  ( 63.2 % of DIIS)
  Orb grad                  ....       0.000 sec  (  0.0 % of DIIS)
  Energy W gradient         ....       0.000 sec  (  0.0 % of DIIS)
  DIIS error                ....       0.000 sec  (  1.1 % of DIIS)
  DIIS work                 ....       0.002 sec  ( 15.3 % of DIIS)
  Form Q                    ....       0.000 sec  (  0.0 % of DIIS)
  Form QpQm                 ....       0.000 sec  (  0.0 % of DIIS)
  Exp/Cayley                ....       0.000 sec  (  0.0 % of DIIS)
  Orb update                ....       0.000 sec  (  0.0 % of DIIS)
  Wake-sleep                ....       0.001 sec  ( 11.3 % of DIIS)
SOSCF solution              ....       0.005 sec  (  1.0%)
  MO trafo                  ....       0.003 sec  ( 70.5 % of SOSCF)
  Orb grad                  ....       0.000 sec  (  1.5 % of SOSCF)
  Rot update                ....       0.000 sec  (  3.9 % of SOSCF)
  Step                      ....       0.001 sec  ( 13.8 % of SOSCF)
Finished LeanSCF after   0.5 sec

Maximum memory used throughout the entire LEANSCF-calculation: 6.3 MB

-------------------------   --------------------
FINAL SINGLE POINT ENERGY       -39.775541857640
-------------------------   --------------------


------------------------------------------------------------------------------
                              ORCA PROPERTY CALCULATIONS
------------------------------------------------------------------------------

GBWName                                 ... ch3.gbw
Number of atoms                         ...      4
Number of basis functions               ...     29
Max core memory                         ...   4096 MB

Electric properties:
Dipole moment                           ... YES
Quadrupole moment                       ...  NO
Static polarizability (Dipole/Dipole)   ...  NO
Static polarizability (Dipole/Quad.)    ...  NO
Static polarizability (Quad./Quad.)     ...  NO
Static polarizability (Velocity)        ...  NO
Static hyperpolarizability              ...  NO

Atomic electric properties:
Dipole moment                           ...  NO
Quadrupole moment                       ...  NO
Static polarizability                   ...  NO

Choice of electric origin               ... Center of mass
Position of electric origin             ...     0.000000    -0.000000     0.000000

General magnetic properties:
Magnetizability                         ...  NO

EPR properties:
g-Tensor (aka g-matrix)                 ...  NO
Zero-Field splitting spin-orbit         ...  NO
Zero-field splitting spin-spin          ...  NO
Hyperfine couplings                     ...  NO (   0 nuclei)
Quadrupole couplings                    ...  NO (   0 nuclei)
Contact density                         ...  NO (   0 nuclei)

NMR properties:
Chemical shifts                         ...  NO (   0 nuclei)
Spin-rotation constants                 ...  NO (   0 nuclei)
Spin-spin couplings                     ...  NO (   0 nuclei,    0 pairs)

Choice of magnetic origin               ... GIAO
Position of magnetic origin             ...     0.000000     0.000000     0.000000

Properties with geometric perturbations:
SCF Hessian                             ...  NO
IR spectrum                             ...  NO
VCD spectrum                            ...  NO
X-ray spectroscopy properties:
SCF XES/XAS/RIXS spectra                ...  NO

SCF SOC stabilization energy            ...  NO
Diagonal Born-Oppenheimer correction    ...  NO

-------------
DIPOLE MOMENT
-------------

Method             : SCF
Type of density    : Electron Density
Multiplicity       :   2
Irrep              :   0
Energy             :   -39.7755418576397446 Eh
Basis              : AO
                                X                 Y                 Z
Electronic contribution:      0.000001009       0.000000000      -0.000000000
Nuclear contribution   :      0.000000000       0.000000000       0.000000000
                        -----------------------------------------
Total Dipole Moment    :      0.000001009       0.000000000       0.000000000
                        -----------------------------------------
Magnitude (a.u.)       :      0.000001009
Magnitude (Debye)      :      0.000002564



--------------------
Rotational spectrum 
--------------------
 
Rotational constants in cm-1:             9.514276             9.514276             4.757138 
Rotational constants in MHz :        285230.807063        285230.807063        142615.403532 

Dipole components along the rotational axes: 
x,y,z [a.u.] :     0.000001     0.000000     0.000000 
x,y,z [Debye]:     0.000003     0.000000     0.000000 

 

Dipole moment calculation done in   0.0 sec 

Maximum memory used throughout the entire PROP-calculation: 1.5 MB

--------------------------------
SUGGESTED CITATIONS FOR THIS RUN
--------------------------------

Below you find a list of papers that are relevant to this ORCA run
We neither can nor want to force you to cite these papers, but we appreciate if you do
You receive ORCA, which is the product of decades of hard work by many enthusiastic individuals, for free
The only thing we kindly ask in return is that you cite our papers,
We deeply appreciate it, if you show your appreciation for ORCA by not just citing the generic ORCA reference.

Please note that relegating all ORCA citations to the supporting information does *not* help us.
SI sections are not indexed - citations you put there will not count into any citation statistics
But we need these citations in order to attract the funding resources that allow us to do what we are doing

Therefore, if you are a happy ORCA user, please consider citing a few of the papers listed below in the main body of your paper

In addition to the list printed below, the program has created the file ch3.bibtex that contains the list in bibtex format
You can import this file easily into all common literature databanks and citation aid programs


List of essential papers. We consider these as the minimum necessary citations

  1. Neese, F.
     Software update: the ORCA program system, version 6.0
     WIRES Comput. Molec. Sci. 2025 15(1), e70019
     doi.org/10.1002/wcms.7019

List of papers to cite with high priority. The work reported in these papers was absolutely
necessary for this run to complete.
Our perspective: the developers of density functionals and basis sets usually get cited in chemistry papers
Good! But without the algorithms to do something with them, the functionals or basis sets would not do anything.
Hence, in our opinion, the algorithm design and method developments papers are equally worthy of getting cited

  1. Neese, F.
     The SHARK Integral Generation and Digestion System
     J. Comp. Chem. 2022 44(3), 381
     doi.org/10.1002/jcc.26942

List of suggested additional citations. These are papers that are important in the 'surrounding' of 
of this run, or papers that preceded the highly important papers. If you like your results we are grateful for a citation.

  1. Neese, F.
     The ORCA program system
     WIRES Comput. Molec. Sci. 2012 2(1), 73-78
     doi.org/10.1002/wcms.81
  2. Neese, F.
     Software update: the ORCA program system, version 4.0
     WIRES Comput. Molec. Sci. 2018 8(1), 1-6
     doi.org/10.1002/wcms.1327
  3. Neese, F.; Wennmohs, F.; Becker, U.; Riplinger, C.
     The ORCA quantum chemistry program package
     J. Chem. Phys. 2020 152(22), 224108
     doi.org/10.1063/5.0004608
  4. Neese, F.
     Software update: The ORCA program system—Version 5.0
     WIRES Comput. Molec. Sci. 2022 12(1), e1606
     doi.org/10.1002/wcms.1606

List of optional additional citations

  1. Neese, F.
     Approximate second-order SCF convergence for spin unrestricted wavefunctions
     Chem. Phys. Lett. 2000 325(1-3), 93-98
     doi.org/10.1016/s0009-2614(00)00662-x

Timings for individual modules:

Sum of individual times          ...        1.539 sec (=   0.026 min)
Startup calculation              ...        0.189 sec (=   0.003 min)  12.3 %
SCF iterations                   ...        0.565 sec (=   0.009 min)  36.7 %
Property calculations            ...        0.785 sec (=   0.013 min)  51.0 %
                             ****ORCA TERMINATED NORMALLY****
TOTAL RUN TIME: 0 days 0 hours 0 minutes 1 seconds 807 msec
