[Molden Format]
[Title]
 Molden file created by orca_2mkl for BaseName=ch3

[Atoms] AU
C    1   6         -0.0000000000         0.0000000000         0.0000000000 
H    2   1          2.0456596139         0.0000000000         0.0000000000 
H    3   1         -1.0228298069         1.7715931931         0.0000000000 
H    4   1         -1.0228298069        -1.7715931931         0.0000000000 
[GTO]
  1 0
s   5 1.0 
     1238.4016938000         0.8208956682
      186.2900499200         1.4766449896
       42.2511763460         2.1526124058
       11.6765579320         2.1081722461
        3.5930506482         0.8290999933
s   1 1.0 
        0.4024514736         0.3601183351
s   1 1.0 
        0.1309018267         0.1551027052
p   3 1.0 
        9.4680970621         1.3467645142
        2.0103545142         1.0678070931
        0.5477100471         0.5108735714
p   1 1.0 
        0.1526861379         0.1360471976
d   1 1.0 
        0.8000000000         1.9292013661

  2 0
s   3 1.0 
       13.0107010000         0.1634903809
        1.9622572000         0.2773515510
        0.4445379600         0.3157501452
s   1 1.0 
        0.1219496200         0.1470772262
p   1 1.0 
        0.8000000000         1.0784563492

  3 0
s   3 1.0 
       13.0107010000         0.1634903809
        1.9622572000         0.2773515510
        0.4445379600         0.3157501452
s   1 1.0 
        0.1219496200         0.1470772262
p   1 1.0 
        0.8000000000         1.0784563492

  4 0
s   3 1.0 
       13.0107010000         0.1634903809
        1.9622572000         0.2773515510
        0.4445379600         0.3157501452
s   1 1.0 
        0.1219496200         0.1470772262
p   1 1.0 
        0.8000000000         1.0784563492

[5D]
[7F]
[9G]
[MO]
 Sym=     1a
 Ene= -1.01942193563517E+01
 Spin= Alpha
 Occup= 1.000000
  1       0.988001096885
  2       0.049371636551
  3      -0.032216168849
  4      -0.000001160894
  5       0.000000000000
  6       0.000000000000
  7       0.000021797617
  8      -0.000000000000
  9       0.000000000000
 10      -0.002539664739
 11       0.000000000000
 12       0.000000000000
 13       0.000004868652
 14       0.000000000000
 15      -0.004602581857
 16       0.007428835568
 17       0.003015391078
 18       0.000000000000
 19       0.000000000000
 20      -0.004591721100
 21       0.007448353683
 22      -0.001507172840
 23       0.002607417070
 24       0.000000000000
 25      -0.004591721100
 26       0.007448353683
 27      -0.001507172840
 28      -0.002607417070
 29       0.000000000000
 Sym=     1a
 Ene= -6.73137751034220E-01
 Spin= Alpha
 Occup= 1.000000
  1      -0.260718696016
  2       0.513480922455
  3       0.208897052505
  4       0.000005494846
  5       0.000000000000
  6       0.000000000000
  7      -0.000075521981
  8      -0.000000000000
  9       0.000000000000
 10       0.005817318377
 11       0.000000000000
 12       0.000000000000
 13      -0.000010388104
 14      -0.000000000000
 15       0.188956486878
 16       0.025685652988
 17      -0.022754045050
 18      -0.000000000000
 19       0.000000000000
 20       0.188920408236
 21       0.025618996986
 22       0.011375713787
 23      -0.019696753626
 24       0.000000000000
 25       0.188920408236
 26       0.025618996986
 27       0.011375713787
 28       0.019696753626
 29       0.000000000000
 Sym=     1a
 Ene= -4.15861551924085E-01
 Spin= Alpha
 Occup= 1.000000
  1       0.000004999706
  2      -0.000024727007
  3       0.000052315820
  4      -0.455152552038
  5       0.000000000000
  6       0.000000000000
  7      -0.165229820954
  8       0.000000000000
  9       0.000000000000
 10      -0.000006357628
 11       0.000000000000
 12       0.000000000000
 13      -0.018707596073
 14      -0.000000000000
 15      -0.366791156544
 16      -0.144255402147
 17       0.012017311988
 18       0.000000000000
 19       0.000000000000
 20       0.183388061935
 21       0.072110890070
 22      -0.006296094814
 23      -0.010572841351
 24       0.000000000000
 25       0.183388061935
 26       0.072110890070
 27      -0.006296094814
 28       0.010572841351
 29       0.000000000000
 Sym=     1a
 Ene= -4.15840102196143E-01
 Spin= Alpha
 Occup= 1.000000
  1      -0.000000000000
  2       0.000000000000
  3      -0.000000000000
  4       0.000000000000
  5       0.455160515098
  6       0.000000000000
  7      -0.000000000000
  8       0.165120196894
  9       0.000000000000
 10       0.000000000000
 11       0.000000000000
 12       0.000000000000
 13       0.000000000000
 14      -0.018703358750
 15       0.000000000000
 16      -0.000000000000
 17       0.000000000000
 18       0.012407894542
 19       0.000000000000
 20       0.317670091569
 21       0.124990147200
 22       0.010578324437
 23      -0.005914125592
 24       0.000000000000
 25      -0.317670091569
 26      -0.124990147200
 27      -0.010578324437
 28      -0.005914125592
 29       0.000000000000
 Sym=     1a
 Ene= -2.28891116273966E-01
 Spin= Alpha
 Occup= 1.000000
  1       0.000000000000
  2       0.000000000000
  3       0.000000000000
  4       0.000000000000
  5       0.000000000000
  6      -0.614377311294
  7       0.000000000000
  8       0.000000000000
  9      -0.509176301361
 10       0.000000000000
 11      -0.000013690907
 12      -0.000000000000
 13       0.000000000000
 14       0.000000000000
 15       0.000000000000
 16       0.000000000000
 17       0.000000000000
 18       0.000000000000
 19      -0.018471165675
 20       0.000000000000
 21       0.000000000000
 22       0.000000000000
 23       0.000000000000
 24      -0.018466896077
 25       0.000000000000
 26       0.000000000000
 27       0.000000000000
 28       0.000000000000
 29      -0.018466896077
 Sym=     1a
 Ene= 8.06134022827108E-02
 Spin= Alpha
 Occup= 0.000000
  1       0.158780405706
  2      -0.319223322598
  3      -2.442521103547
  4      -0.000004626232
  5      -0.000000000000
  6       0.000000000000
  7       0.000095914745
  8      -0.000000000000
  9       0.000000000000
 10      -0.012648964378
 11       0.000000000000
 12       0.000000000000
 13       0.000008695381
 14       0.000000000000
 15       0.069546326190
 16       1.202917518134
 17       0.008136779996
 18       0.000000000000
 19       0.000000000000
 20       0.069589689506
 21       1.203017988861
 22      -0.004065215332
 23       0.007040296454
 24       0.000000000000
 25       0.069589689506
 26       1.203017988861
 27      -0.004065215332
 28      -0.007040296454
 29       0.000000000000
 Sym=     1a
 Ene= 1.45801014142135E-01
 Spin= Alpha
 Occup= 0.000000
  1       0.000007291256
  2      -0.000016310382
  3      -0.000022619721
  4      -0.377038178564
  5       0.000000000000
  6       0.000000000000
  7      -1.285745193423
  8       0.000000000000
  9       0.000000000000
 10      -0.000005843223
 11       0.000000000000
 12       0.000000000000
 13       0.009557241919
 14      -0.000000000000
 15       0.078439297922
 16       1.989381263620
 17       0.004469868521
 18      -0.000000000000
 19       0.000000000000
 20      -0.039231577760
 21      -0.994661132436
 22      -0.007793201946
 23      -0.007077350724
 24       0.000000000000
 25      -0.039231577760
 26      -0.994661132436
 27      -0.007793201946
 28       0.007077350724
 29       0.000000000000
 Sym=     1a
 Ene= 1.45809607172892E-01
 Spin= Alpha
 Occup= 0.000000
  1      -0.000000000000
  2       0.000000000000
  3       0.000000000000
  4      -0.000000000000
  5       0.377054805077
  6       0.000000000000
  7       0.000000000000
  8       1.285739580699
  9       0.000000000000
 10       0.000000000000
 11       0.000000000000
 12       0.000000000000
 13       0.000000000000
 14       0.009561808407
 15      -0.000000000000
 16      -0.000000000000
 17      -0.000000000000
 18       0.011883536442
 19       0.000000000000
 20      -0.067938822816
 21      -1.722818117724
 22       0.007080542755
 23      -0.000383351654
 24       0.000000000000
 25       0.067938822816
 26       1.722818117724
 27      -0.007080542755
 28      -0.000383351654
 29       0.000000000000
 Sym=     1a
 Ene= 4.44433958196161E-01
 Spin= Alpha
 Occup= 0.000000
  1      -0.000000000000
  2       0.000000000000
  3       0.000000000000
  4      -0.000000000000
  5      -0.298535338531
  6       0.000000000000
  7      -0.000000000000
  8       1.488682944489
  9       0.000000000000
 10       0.000000000000
 11       0.000000000000
 12       0.000000000000
 13      -0.000000000000
 14       0.088238608207
 15       0.000000000000
 16       0.000000000000
 17      -0.000000000000
 18       0.079369428783
 19       0.000000000000
 20      -0.714589589871
 21      -0.186524157510
 22       0.030894816919
 23       0.025854791842
 24       0.000000000000
 25       0.714589589871
 26       0.186524157510
 27      -0.030894816919
 28       0.025854791842
 29       0.000000000000
 Sym=     1a
 Ene= 4.44478772655922E-01
 Spin= Alpha
 Occup= 0.000000
  1      -0.000145588096
  2       0.001538845170
  3      -0.004425319093
  4       0.298353592622
  5       0.000000000000
  6       0.000000000000
  7      -1.488331457554
  8      -0.000000000000
  9       0.000000000000
 10      -0.000108481004
 11       0.000000000000
 12       0.000000000000
 13       0.088278568329
 14      -0.000000000000
 15       0.825918248415
 16       0.215851777100
 17      -0.007973207674
 18      -0.000000000000
 19       0.000000000000
 20      -0.411962272843
 21      -0.106689435307
 22      -0.061551513506
 23      -0.030906382538
 24       0.000000000000
 25      -0.411962272843
 26      -0.106689435307
 27      -0.061551513506
 28       0.030906382538
 29       0.000000000000
 Sym=     1a
 Ene= 4.69430527754878E-01
 Spin= Alpha
 Occup= 0.000000
  1      -0.076830687267
  2       0.943079264335
  3      -2.815756869603
  4      -0.000283894923
  5      -0.000000000000
  6       0.000000000000
  7       0.001606082847
  8      -0.000000000000
  9       0.000000000000
 10      -0.113052654353
 11       0.000000000000
 12       0.000000000000
 13      -0.000139486162
 14       0.000000000000
 15       0.630403916418
 16       0.392888070543
 17       0.027205253910
 18      -0.000000000000
 19       0.000000000000
 20       0.631954776978
 21       0.392991347470
 22      -0.013519712351
 23       0.023616999311
 24       0.000000000000
 25       0.631954776978
 26       0.392991347470
 27      -0.013519712351
 28      -0.023616999311
 29       0.000000000000
 Sym=     1a
 Ene= 4.79593807294970E-01
 Spin= Alpha
 Occup= 0.000000
  1       0.000000000000
  2       0.000000000000
  3       0.000000000000
  4       0.000000000000
  5       0.000000000000
  6       0.995731030685
  7       0.000000000000
  8       0.000000000000
  9      -1.077881718750
 10       0.000000000000
 11       0.000040218081
 12      -0.000000000000
 13       0.000000000000
 14       0.000000000000
 15       0.000000000000
 16       0.000000000000
 17       0.000000000000
 18       0.000000000000
 19       0.028353612708
 20       0.000000000000
 21       0.000000000000
 22       0.000000000000
 23       0.000000000000
 24       0.028344809681
 25       0.000000000000
 26       0.000000000000
 27       0.000000000000
 28       0.000000000000
 29       0.028344809681
 Sym=     1a
 Ene= 6.38378643789008E-01
 Spin= Alpha
 Occup= 0.000000
  1      -0.299565010910
  2       1.816330108580
  3      -4.171723951817
  4       0.000601241883
  5      -0.000000000000
  6       0.000000000000
  7      -0.000894353524
  8      -0.000000000000
  9       0.000000000000
 10       0.106015018844
 11       0.000000000000
 12       0.000000000000
 13      -0.000157383172
 14       0.000000000000
 15      -0.426819804305
 16       1.396907731811
 17      -0.103621351410
 18       0.000000000000
 19       0.000000000000
 20      -0.425948848985
 21       1.395006903846
 22       0.051782270623
 23      -0.089542338581
 24       0.000000000000
 25      -0.425948848985
 26       1.395006903846
 27       0.051782270623
 28       0.089542338581
 29       0.000000000000
 Sym=     1a
 Ene= 6.89005979070888E-01
 Spin= Alpha
 Occup= 0.000000
  1      -0.000000000000
  2       0.000000000000
  3       0.000000000000
  4       0.000000000000
  5      -0.930457511347
  6       0.000000000000
  7       0.000000000000
  8       1.631548875858
  9       0.000000000000
 10       0.000000000000
 11       0.000000000000
 12       0.000000000000
 13       0.000000000000
 14      -0.147851127464
 15      -0.000000000000
 16      -0.000000000000
 17      -0.000000000000
 18      -0.068935985873
 19       0.000000000000
 20       0.502052226297
 21      -1.551219104598
 22      -0.105328068674
 23       0.113505732677
 24       0.000000000000
 25      -0.502052226297
 26       1.551219104598
 27       0.105328068674
 28       0.113505732677
 29       0.000000000000
 Sym=     1a
 Ene= 6.89035975336488E-01
 Spin= Alpha
 Occup= 0.000000
  1      -0.000231495733
  2       0.001408050689
  3      -0.003262820446
  4      -0.930525151376
  5       0.000000000000
  6       0.000000000000
  7       1.631806488829
  8       0.000000000000
  9       0.000000000000
 10       0.000057011863
 11       0.000000000000
 12       0.000000000000
 13       0.147819408758
 14       0.000000000000
 15       0.579311490590
 16      -1.790168095398
 17       0.174249586307
 18       0.000000000000
 19       0.000000000000
 20      -0.290033926540
 21       0.896644297390
 22      -0.008056182312
 23      -0.105387797677
 24       0.000000000000
 25      -0.290033926540
 26       0.896644297390
 27      -0.008056182312
 28       0.105387797677
 29       0.000000000000
 Sym=     1a
 Ene= 1.19586656800252E+00
 Spin= Alpha
 Occup= 0.000000
  1       0.000000000000
  2       0.000000000000
  3       0.000000000000
  4       0.000000000000
  5       0.000000000000
  6       0.000000000000
  7       0.000000000000
  8       0.000000000000
  9       0.000000000000
 10       0.000000000000
 11      -0.000000000000
 12       0.437269773729
 13       0.000000000000
 14       0.000000000000
 15       0.000000000000
 16       0.000000000000
 17       0.000000000000
 18       0.000000000000
 19       0.000000000000
 20       0.000000000000
 21       0.000000000000
 22       0.000000000000
 23       0.000000000000
 24       0.520507888626
 25       0.000000000000
 26       0.000000000000
 27       0.000000000000
 28       0.000000000000
 29      -0.520507888626
 Sym=     1a
 Ene= 1.19589438174224E+00
 Spin= Alpha
 Occup= 0.000000
  1       0.000000000000
  2       0.000000000000
  3       0.000000000000
  4       0.000000000000
  5       0.000000000000
  6       0.000044888673
  7       0.000000000000
  8       0.000000000000
  9      -0.000032283649
 10       0.000000000000
 11      -0.437213280152
 12       0.000000000000
 13       0.000000000000
 14       0.000000000000
 15       0.000000000000
 16       0.000000000000
 17       0.000000000000
 18       0.000000000000
 19      -0.601067642067
 20       0.000000000000
 21       0.000000000000
 22       0.000000000000
 23       0.000000000000
 24       0.300534918984
 25       0.000000000000
 26       0.000000000000
 27       0.000000000000
 28       0.000000000000
 29       0.300534918984
 Sym=     1a
 Ene= 1.48027319458784E+00
 Spin= Alpha
 Occup= 0.000000
  1       0.000000000000
  2      -0.000000000000
  3       0.000000000000
  4      -0.000000000000
  5       0.000001759661
  6       0.000000000000
  7      -0.000000000000
  8      -0.000005537524
  9       0.000000000000
 10      -0.000000000000
 11       0.000000000000
 12       0.000000000000
 13       0.000000000000
 14       0.000009677882
 15       0.000000000000
 16      -0.000000000000
 17       0.000000000000
 18      -0.589166258415
 19       0.000000000000
 20       0.000001083223
 21       0.000004060112
 22       0.510232316764
 23       0.294579920067
 24       0.000000000000
 25      -0.000001083223
 26      -0.000004060112
 27      -0.510232316764
 28       0.294579920067
 29       0.000000000000
 Sym=     1a
 Ene= 1.60527136474598E+00
 Spin= Alpha
 Occup= 0.000000
  1       0.000000000000
  2      -0.000000000000
  3      -0.000000000000
  4       0.000000000000
  5       0.148505446191
  6       0.000000000000
  7      -0.000000000000
  8      -1.084567436194
  9       0.000000000000
 10      -0.000000000000
 11       0.000000000000
 12       0.000000000000
 13       0.000000000000
 14       0.324913057509
 15       0.000000000000
 16       0.000000000000
 17       0.000000000000
 18       0.653363822193
 19       0.000000000000
 20       0.432017707708
 21       0.306513276971
 22       0.138888218850
 23       0.412797573965
 24       0.000000000000
 25      -0.432017707708
 26      -0.306513276971
 27      -0.138888218850
 28       0.412797573965
 29       0.000000000000
 Sym=     1a
 Ene= 1.60528147335241E+00
 Spin= Alpha
 Occup= 0.000000
  1       0.000014881608
  2      -0.000049868042
  3       0.000170816094
  4       0.148542325964
  5       0.000000000000
  6       0.000000000000
  7      -1.084637664005
  8      -0.000000000000
  9       0.000000000000
 10       0.000039704483
 11       0.000000000000
 12       0.000000000000
 13      -0.324924370541
 14      -0.000000000000
 15       0.498865347702
 16       0.353925950510
 17       0.332630459738
 18      -0.000000000000
 19       0.000000000000
 20      -0.249425629478
 21      -0.177041985923
 22       0.573155516090
 23       0.138912633412
 24       0.000000000000
 25      -0.249425629478
 26      -0.177041985923
 27       0.573155516090
 28      -0.138912633412
 29       0.000000000000
 Sym=     1a
 Ene= 1.73295713400862E+00
 Spin= Alpha
 Occup= 0.000000
  1       0.000000000000
  2       0.000000000000
  3       0.000000000000
  4       0.000000000000
  5       0.000000000000
  6       0.241100470746
  7       0.000000000000
  8       0.000000000000
  9       0.402170114981
 10       0.000000000000
 11       0.000022266399
 12      -0.000000000000
 13       0.000000000000
 14       0.000000000000
 15       0.000000000000
 16       0.000000000000
 17       0.000000000000
 18       0.000000000000
 19      -0.654147588875
 20       0.000000000000
 21       0.000000000000
 22       0.000000000000
 23       0.000000000000
 24      -0.654126471329
 25       0.000000000000
 26       0.000000000000
 27       0.000000000000
 28       0.000000000000
 29      -0.654126471329
 Sym=     1a
 Ene= 1.82294420523573E+00
 Spin= Alpha
 Occup= 0.000000
  1      -0.080859694342
  2       0.726787277322
  3      -0.600772145780
  4      -0.000024622044
  5       0.000000000000
  6       0.000000000000
  7       0.000099719877
  8      -0.000000000000
  9       0.000000000000
 10       0.760322064290
 11       0.000000000000
 12       0.000000000000
 13      -0.000005541287
 14      -0.000000000000
 15       0.154594895644
 16       0.004363276083
 17       0.352591077348
 18      -0.000000000000
 19       0.000000000000
 20       0.154631159690
 21       0.004435790617
 22      -0.176348770994
 23       0.305346928494
 24       0.000000000000
 25       0.154631159690
 26       0.004435790617
 27      -0.176348770994
 28      -0.305346928494
 29       0.000000000000
 Sym=     1a
 Ene= 2.21748958930646E+00
 Spin= Alpha
 Occup= 0.000000
  1       0.000000000000
  2       0.000000000000
  3       0.000000000000
  4       0.000000000000
  5       0.000000000000
  6      -0.000000000000
  7       0.000000000000
  8       0.000000000000
  9      -0.000000000000
 10       0.000000000000
 11       0.000000000000
 12       1.012405051446
 13       0.000000000000
 14       0.000000000000
 15       0.000000000000
 16       0.000000000000
 17       0.000000000000
 18       0.000000000000
 19       0.000000000000
 20       0.000000000000
 21       0.000000000000
 22       0.000000000000
 23       0.000000000000
 24      -0.584116416485
 25       0.000000000000
 26       0.000000000000
 27       0.000000000000
 28       0.000000000000
 29       0.584116416485
 Sym=     1a
 Ene= 2.21755554530174E+00
 Spin= Alpha
 Occup= 0.000000
  1       0.000000000000
  2       0.000000000000
  3       0.000000000000
  4       0.000000000000
  5       0.000000000000
  6       0.000033780417
  7       0.000000000000
  8       0.000000000000
  9      -0.000013146129
 10       0.000000000000
 11      -1.012429448687
 12      -0.000000000000
 13       0.000000000000
 14       0.000000000000
 15       0.000000000000
 16       0.000000000000
 17       0.000000000000
 18       0.000000000000
 19       0.674432675400
 20       0.000000000000
 21       0.000000000000
 22       0.000000000000
 23       0.000000000000
 24      -0.337236327661
 25       0.000000000000
 26       0.000000000000
 27       0.000000000000
 28       0.000000000000
 29      -0.337236327661
 Sym=     1a
 Ene= 2.23692972075748E+00
 Spin= Alpha
 Occup= 0.000000
  1       0.000004922810
  2      -0.000038799379
  3       0.000022827695
  4       0.731800163395
  5       0.000000000000
  6       0.000000000000
  7       0.692033602114
  8       0.000000000000
  9       0.000000000000
 10      -0.000007874810
 11       0.000000000000
 12       0.000000000000
 13      -0.365015293135
 14       0.000000000000
 15      -0.282783369771
 16      -0.680431795964
 17       0.728140155662
 18       0.000000000000
 19       0.000000000000
 20       0.141398519665
 21       0.340212108296
 22      -0.331954832470
 23      -0.612072479438
 24       0.000000000000
 25       0.141398519665
 26       0.340212108296
 27      -0.331954832470
 28       0.612072479438
 29       0.000000000000
 Sym=     1a
 Ene= 2.23693009563119E+00
 Spin= Alpha
 Occup= 0.000000
  1      -0.000000000000
  2       0.000000000000
  3       0.000000000000
  4      -0.000000000000
  5       0.731812450795
  6       0.000000000000
  7      -0.000000000000
  8       0.692038076340
  9       0.000000000000
 10      -0.000000000000
 11       0.000000000000
 12       0.000000000000
 13       0.000000000000
 14       0.365002000331
 15      -0.000000000000
 16      -0.000000000000
 17      -0.000000000000
 18      -0.685325885713
 19       0.000000000000
 20      -0.244906750771
 21      -0.589273851834
 22      -0.612063832851
 23       0.374794153673
 24       0.000000000000
 25       0.244906750771
 26       0.589273851834
 27       0.612063832851
 28       0.374794153673
 29       0.000000000000
 Sym=     1a
 Ene= 2.84746894809341E+00
 Spin= Alpha
 Occup= 0.000000
  1       0.269840744432
  2      -1.679667840549
  3      -1.091034848979
  4       0.000070942004
  5      -0.000000000000
  6       0.000000000000
  7       0.000016254719
  8      -0.000000000000
  9       0.000000000000
 10       1.041419968596
 11       0.000000000000
 12       0.000000000000
 13       0.000102573874
 14       0.000000000000
 15       0.788019980812
 16       0.336226485796
 17      -0.914037777913
 18      -0.000000000000
 19       0.000000000000
 20       0.788126115285
 21       0.336239555057
 22       0.457095691644
 23      -0.791661257600
 24       0.000000000000
 25       0.788126115285
 26       0.336239555057
 27       0.457095691644
 28       0.791661257600
 29       0.000000000000
 Sym=     1a
 Ene= 2.91505765761471E+00
 Spin= Alpha
 Occup= 0.000000
  1       0.000029564371
  2      -0.000162998875
  3      -0.000014960285
  4      -1.092019768513
  5       0.000000000000
  6       0.000000000000
  7      -0.449554246541
  8       0.000000000000
  9       0.000000000000
 10       0.000064929281
 11       0.000000000000
 12       0.000000000000
 13      -1.392257982556
 14       0.000000000000
 15       1.059512736026
 16       0.297321096991
 17      -1.082414922667
 18      -0.000000000000
 19       0.000000000000
 20      -0.529674665419
 21      -0.148644180616
 22      -0.503547108768
 23       0.334090213805
 24       0.000000000000
 25      -0.529674665419
 26      -0.148644180616
 27      -0.503547108768
 28      -0.334090213805
 29       0.000000000000
 Sym=     1a
 Ene= 2.91508083641169E+00
 Spin= Alpha
 Occup= 0.000000
  1       0.000000000000
  2      -0.000000000000
  3       0.000000000000
  4      -0.000000000000
  5       1.092015659982
  6       0.000000000000
  7      -0.000000000000
  8       0.449548128384
  9       0.000000000000
 10       0.000000000000
 11       0.000000000000
 12       0.000000000000
 13      -0.000000000000
 14      -1.392263318150
 15       0.000000000000
 16       0.000000000000
 17      -0.000000000000
 18       0.310661290280
 19       0.000000000000
 20      -0.917517077796
 21      -0.257471132850
 22      -0.334141245213
 23       0.889419503736
 24       0.000000000000
 25       0.917517077796
 26       0.257471132850
 27       0.334141245213
 28       0.889419503736
 29       0.000000000000
 Sym=     1a
 Ene= -1.01794965900725E+01
 Spin=Beta
 Occup= 1.000000
  1       0.988525896051
  2       0.047254814747
  3      -0.030400958908
  4      -0.000001112308
  5       0.000000000000
  6       0.000000000000
  7       0.000022717595
  8      -0.000000000000
  9       0.000000000000
 10      -0.003387593446
 11       0.000000000000
 12       0.000000000000
 13       0.000005454348
 14      -0.000000000000
 15      -0.004560675180
 16       0.007006430714
 17       0.002926867298
 18       0.000000000000
 19       0.000000000000
 20      -0.004549012814
 21       0.007026730598
 22      -0.001462673642
 23       0.002530409278
 24       0.000000000000
 25      -0.004549012814
 26       0.007026730598
 27      -0.001462673642
 28      -0.002530409278
 29       0.000000000000
 Sym=     1a
 Ene= -6.33224931540796E-01
 Spin=Beta
 Occup= 1.000000
  1      -0.249494273250
  2       0.481146441861
  3       0.156344811529
  4      -0.000000009181
  5       0.000000000000
  6       0.000000000000
  7      -0.000081481289
  8      -0.000000000000
  9       0.000000000000
 10      -0.017084166749
 11       0.000000000000
 12       0.000000000000
 13      -0.000007769884
 14      -0.000000000000
 15       0.208911806076
 16       0.047079546656
 17      -0.022395830708
 18      -0.000000000000
 19       0.000000000000
 20       0.208881191955
 21       0.047009666135
 22       0.011197759001
 23      -0.019387449229
 24       0.000000000000
 25       0.208881191955
 26       0.047009666135
 27       0.011197759001
 28       0.019387449229
 29       0.000000000000
 Sym=     1a
 Ene= -4.05604931160978E-01
 Spin=Beta
 Occup= 1.000000
  1       0.000008061362
  2      -0.000038097835
  3       0.000087619248
  4      -0.436108843927
  5       0.000000000000
  6       0.000000000000
  7      -0.144624997548
  8       0.000000000000
  9       0.000000000000
 10      -0.000005818042
 11       0.000000000000
 12       0.000000000000
 13      -0.018148481820
 14      -0.000000000000
 15      -0.383432672583
 16      -0.166744944023
 17       0.012425498784
 18       0.000000000000
 19       0.000000000000
 20       0.191700025099
 21       0.083339052416
 22      -0.007152365225
 23      -0.011301928749
 24       0.000000000000
 25       0.191700025099
 26       0.083339052416
 27      -0.007152365225
 28       0.011301928749
 29       0.000000000000
 Sym=     1a
 Ene= -4.05583521882963E-01
 Spin=Beta
 Occup= 1.000000
  1       0.000000000000
  2      -0.000000000000
  3       0.000000000000
  4      -0.000000000000
  5      -0.436120503321
  6       0.000000000000
  7       0.000000000000
  8      -0.144492802493
  9       0.000000000000
 10      -0.000000000000
 11       0.000000000000
 12       0.000000000000
 13      -0.000000000000
 14       0.018142144312
 15      -0.000000000000
 16       0.000000000000
 17      -0.000000000000
 18      -0.013685505162
 19       0.000000000000
 20      -0.332078960889
 21      -0.144473878150
 22      -0.011308762710
 23       0.005901862167
 24       0.000000000000
 25       0.332078960889
 26       0.144473878150
 27       0.011308762710
 28       0.005901862167
 29       0.000000000000
 Sym=     1a
 Ene= -5.75823955252131E-02
 Spin=Beta
 Occup= 0.000000
  1       0.000000000000
  2       0.000000000000
  3       0.000000000000
  4       0.000000000000
  5       0.000000000000
  6       0.507989597426
  7       0.000000000000
  8       0.000000000000
  9       0.609569453948
 10       0.000000000000
 11       0.000004446647
 12       0.000000000000
 13       0.000000000000
 14       0.000000000000
 15       0.000000000000
 16       0.000000000000
 17       0.000000000000
 18       0.000000000000
 19       0.024134981880
 20       0.000000000000
 21       0.000000000000
 22       0.000000000000
 23       0.000000000000
 24       0.024131725049
 25       0.000000000000
 26       0.000000000000
 27       0.000000000000
 28       0.000000000000
 29       0.024131725049
 Sym=     1a
 Ene= 9.14366844217648E-02
 Spin=Beta
 Occup= 0.000000
  1       0.160094175926
  2      -0.302660017821
  3      -2.504661227617
  4       0.000000800065
  5      -0.000000000000
  6       0.000000000000
  7       0.000131532088
  8      -0.000000000000
  9       0.000000000000
 10       0.008301125879
 11       0.000000000000
 12       0.000000000000
 13       0.000006539044
 14       0.000000000000
 15       0.041996713401
 16       1.229470804273
 17       0.008556833836
 18       0.000000000000
 19       0.000000000000
 20       0.042050819852
 21       1.229638541311
 22      -0.004275778074
 23       0.007404243945
 24       0.000000000000
 25       0.042050819852
 26       1.229638541311
 27      -0.004275778074
 28      -0.007404243945
 29       0.000000000000
 Sym=     1a
 Ene= 1.49854139683630E-01
 Spin=Beta
 Occup= 0.000000
  1       0.000011976376
  2      -0.000029708451
  3      -0.000058859792
  4      -0.372576395394
  5      -0.000000000000
  6       0.000000000000
  7      -1.299803821162
  8       0.000000000000
  9       0.000000000000
 10      -0.000004205969
 11       0.000000000000
 12       0.000000000000
 13       0.007908277152
 14      -0.000000000000