
                                 *****************
                                 * O   R   C   A *
                                 *****************

                                            #,                                       
                                            ###                                      
                                            ####                                     
                                            #####                                    
                                            ######                                   
                                           ########,                                 
                                     ,,################,,,,,                         
                               ,,#################################,,                 
                          ,,##########################################,,             
                       ,#########################################, ''#####,          
                    ,#############################################,,   '####,        
                  ,##################################################,,,,####,       
                ,###########''''           ''''###############################       
              ,#####''   ,,,,##########,,,,          '''####'''          '####       
            ,##' ,,,,###########################,,,                        '##       
           ' ,,###''''                  '''############,,,                           
         ,,##''                                '''############,,,,        ,,,,,,###''
      ,#''                                            '''#######################'''  
     '                                                          ''''####''''         
             ,#######,   #######,   ,#######,      ##                                
            ,#'     '#,  ##    ##  ,#'     '#,    #''#        ,####,    ,#,          
            ##       ##  ##   ,#'  ##            #'  '#       #'       ,# #          
            ##       ##  #######   ##           ,######,      #####,      #          
            '#,     ,#'  ##    ##  '#,     ,#' ,#      #,     #,   #      #          
             '#######'   ##     ##  '#######'  #'      '#     '####' #    #          



                #########################################################
                #                        -***-                          #
                #          Department of theory and spectroscopy        #
                #                                                       #
                #                      Frank Neese                      #
                #                                                       #
                #     Directorship, Architecture, Infrastructure        #
                #                    SHARK, DRIVERS                     #
                #        Core code/Algorithms in most modules           #
                #                                                       #
                #        Max Planck Institute fuer Kohlenforschung      #
                #                Kaiser Wilhelm Platz 1                 #
                #                 D-45470 Muelheim/Ruhr                 #
                #                      Germany                          #
                #                                                       #
                #                  All rights reserved                  #
                #                        -***-                          #
                #########################################################


                         Program Version 6.1.0  -  RELEASE   -
                                (GIT: $679e74b$)
                          ($2025-06-10 18:02:51 +0200$)


 With contributions from (in alphabetic order):
[Max-Planck-Institut fuer Kohlenforschung]                               
  Daniel Aravena         : Magnetic Suceptibility                        
  Michael Atanasov       : Ab Initio Ligand Field Theory (pilot matlab implementation)
  Alexander A. Auer      : GIAO ZORA, VPT2 properties, NMR spectrum      
  Ute Becker             : All parallelization in ORCA, NUMFREQ, NUMCALC 
  Giovanni Bistoni       : ED, misc. LED, open-shell LED, HFLD           
  Dmytro Bykov           : pre 5.0 version of the SCF Hessian            
  Marcos Casanova-Páez   : Triplet and SCS-CIS(D). UHF-(DLPNO)-IP/EA/STEOM-CCSD. UHF-CVS-IP/STEOM-CCSD   
  Vijay G. Chilkuri      : MRCI spin determinant printing, contributions to CSF-ICE 
  Pauline Colinet        : FMM embedding                                 
  Dipayan Datta          : RHF DLPNO-CCSD density                        
  Achintya Kumar Dutta   : EOM-CC, STEOM-CC                              
  Nicolas Foglia         : Exact transition moments, OPA infrastructure, MCD improvements    
  Dmitry Ganyushin       : Spin-Orbit,Spin-Spin,Magnetic field MRCI      
  Miquel Garcia-Rates    : C-PCM and meta-GGA Hessian, CCSD/C-PCM, Gaussian charge scheme 
  Tiago L. C. Gouveia    : GS-ROHF, GS-ROCIS                             
  Yang Guo               : DLPNO-NEVPT2, F12-NEVPT2, CIM, IAO-localization        
  Andreas Hansen         : Spin unrestricted coupled pair/coupled cluster methods 
  Ingolf Harden          : AUTO-CI MPn and infrastructure                
  Benjamin Helmich-Paris : MC-RPA, TRAH-(SCF,CASSCF), AVAS, COSX integrals, SCF dyn. polar., MC-PDFT, srDFT 
  Lee Huntington         : MR-EOM, pCC                                   
  Robert Izsak           : Overlap fitted RIJCOSX, COSX-SCS-MP3, EOM     
  Riya Kayal             : Wick's Theorem for AUTO-CI, AUTO-CI UHF-CCSDT 
  Emily Kempfer          : AUTO-CI RHF CISDT and CCSDT, approximate NEVPT4
  Christian Kollmar      : KDIIS, OOCD, Brueckner-CCSD(T), CCSD density, CASPT2, CASPT2-K, improved NEVPT2 
  Axel Koslowski         : Symmetry handling                             
  Simone Kossmann        : meta-GGA functionals, TD-DFT gradient, OOMP2, (MP2 Hessian; deprecated post 5.0) 
  Lucas Lang             : DCDCAS, Hyperfine gauge corrections, ICE-SOC+SSC
  Marvin Lechner         : AUTO-CI (C++ implementation), FIC-MRCC        
  Spencer Leger          : CASSCF response                               
  Dagmar Lenk            : GEPOL surface, SMD, ORCA-2-JSON               
  Dimitrios Liakos       : Extrapolation schemes; Compound Job, Property file
  Dimitrios Manganas     : Further ROCIS development; embedding schemes. LFT, Crystal Embedding 
  Dimitrios Pantazis     : SARC Basis sets                               
  Anastasios Papadopoulos: AUTO-CI, single reference methods and gradients 
  Taras Petrenko         : pre 6.0 DFT Hessian and TD-DFT gradient,  ECA, NRVS 
  Petra Pikulova         : Analytic Raman intensities                    
  Peter Pinski           : DLPNO-MP2, DLPNO-MP2 Gradient                 
  Shashank Vittal Rao    : ES-AILFT, MagRelax                            
  Christoph Reimann      : Effective Core Potentials                     
  Marius Retegan         : Local ZFS, SOC                                
  Christoph Riplinger    : Optimizer, TS searches, QM/MM, DLPNO-CCSD(T), (RO)-DLPNO pert. Triples 
  Michael Roemelt        : Original ROCIS implementation, recursive CI coupling coefficients
  Masaaki Saitow         : Open-shell DLPNO-CCSD energy and density      
  Barbara Sandhoefer     : DKH picture change effects                    
  Yorick L. A. Schmerwitz: GMF and freeze-and-release deltaSCF, NEB S-IDPP initial path                    
  Kantharuban Sivalingam : CASSCF convergence/infrastructure, NEVPT2, NEVPT3, NEVPT4(SD), FIC-MRCI and CEPA variants
  Bernardo de Souza      : ESD, SOC TD-DFT                               
  Georgi L. Stoychev     : AutoAux, RI-MP2 NMR, DLPNO-MP2 response, X2C  
  Van Anh Tran           : RI-MP2 g-tensors                              
  Willem Van den Heuvel  : Paramagnetic NMR                              
  Zikuan Wang            : NOTCH, Electric field optimization            
  Frank Wennmohs         : Technical directorship and infrastructure     
  Hang Xu                : AUTO-CI-Response properties                   
                                                                         
[FACCTs GmbH]                                                            
  Markus Bursch, Nicolas Foglia, Miquel Garcia-Rates, Ingolf Harden, Hagen Neugebauer, Anastasios Papadopoulos, 
  Christoph Riplinger, Bernardo de Souza, Georgi L. Stoychev                                                    
                                                                 
  APM, various basis sets, CI-OPT, improved COSX, DLPNO-Multilevel,           
  DOCKER, DRACO, updates on ESD, Fragmentator, GOAT, IRC, LR-CPCM, L-BFGS, MBIS, meta-GGA TD-DFT gradient, ML-optimized integration grids, 
  MM, NACMEs, nearIR, NEB, NEB-TS, NL-DFT gradient (VV10), 2- and 3-layer-ONIOM, interface openCOSMO-RS, QMMM,   
  Crystal-QMMM, RESP, rigid body optimization, SF, symmetry and pop. for TD-DFT, various functionals, SOLVATOR                                   
                                                                         
[Other institutions]                                                     
  V. Asgeirsson          : NEB                                           
  Christoph Bannwarth    : sTDA-DFT, sTD-DFT, PBEh-3c, B97-3c, D3        
  Giovanni Bistoni       : ETS/NOCV, ADLD/ADEX, COVALED                  
  Martin Brehm           : Molecular dynamics                            
  Ronald Cardenas        : ETS/NOCV                                      
  Martina Colucci        : COVALED                                       
  Sebastian Ehlert       : rSCAN, r2SCAN, r2SCAN-3c, D4, dhf basis sets  
  Marvin Friede          : D4 for Fr, Ra, Ac-Lr                          
  Lars Goerigk           : TD-DFT with DH, B97 family of functionals     
  Stefan Grimme          : VdW corrections, initial TS optimization, DFT functionals, gCP, sTDA/sTD-DF 
  Waldemar Hujo          : DFT-NL                                        
  H. Jonsson             : NEB                                           
  Holger Kruse           : gCP                                           
  Marcel Mueller         : wB97X-3c, vDZP basis set                      
  Hagen Neugebauer       : wr2SCAN, Native XTB                           
  Gianluca Regni         : ADLD/ADEX                                     
  Tobias Risthaus        : pre 6.0 range-separated hybrid DFT and stability analysis
  Lukas Wittmann         : regularized MP2, r2SCAN double-hybrids, wr2SCAN        
                                                                         
We gratefully acknowledge several colleagues who have allowed us to      
interface, adapt or use parts of their codes:                            
  Ed Valeev, F. Pavosevic, A. Kumar             : LibInt (2-el integral package), F12 methods 
  Garnet Chan, S. Sharma, J. Yang, R. Olivares  : DMRG                   
  Ulf Ekstrom                                   : XCFun DFT Library      
  Mihaly Kallay                                 : mrcc  (arbitrary order and MRCC methods)
  Frank Weinhold                                : gennbo (NPA and NBO analysis)           
  Simon Mueller                                 : openCOSMO-RS                            
  Christopher J. Cramer and Donald G. Truhlar   : smd solvation model                     
  S Lehtola, MJT Oliveira, MAL Marques          : LibXC Library                           
  Liviu Ungur et al                             : ANISO software                          


 Your calculation uses the libint2 library for the computation of 2-el integrals
 For citations please refer to: http://libint.valeyev.net

 Your ORCA version has been built with support for libXC version: 7.0.0
 For citations please refer to: https://libxc.gitlab.io

 This ORCA versions uses:
   CBLAS   interface :  Fast vector & matrix operations
   LAPACKE interface :  Fast linear algebra routines
   SCALAPACK package :  Parallel linear algebra routines
   Shared memory     :  Shared parallel matrices
   BLAS/LAPACK       :  OpenBLAS 0.3.29  USE64BITINT DYNAMIC_ARCH NO_AFFINITY SkylakeX SINGLE_THREADED
        Core in use  :  SkylakeX
   Copyright (c) 2011-2014, The OpenBLAS Project


  ***********************************
  * Starting time: Wed Dec 10 16:07:09 2025
  * Host name:     Jhonnytest
  * Process ID:    28575
  * Working dir.:  /home/jhonapontee/Group-theory/Proyecto/D3d/CASPT2/orbitals
  ***********************************

================================================================================

----- Orbital basis set information -----
Your calculation utilizes the basis: def2-SVP
   F. Weigend and R. Ahlrichs, Phys. Chem. Chem. Phys. 7, 3297 (2005).

================================================================================
                                        WARNINGS
                       Please study these warnings very carefully!
================================================================================


WARNING: CASSCF multiplicity blocks not in descending order!
       : This is important for any CASSCF property run ...
 ===>  : Re-ordering the multiplicity blocks, nroots, irreps and alike!

IMPORTANT NOTE: CASSCF must signal convergence for a subsequent CASPT2/NEVPT2! 
                Set maxiter=1 to run CASPT2/NEVPT2 with arbitrary orbitals.


================================================================================
                                       INPUT FILE
================================================================================
NAME = d3d.inp
|  1> ! def2-SVP TightSCF
|  2> ! CASSCF
|  3> ! MORead
|  4> ! LargePrint   # <--- ESTO reemplaza a OrbPrint. Imprime los coeficientes en el .out
|  5> 
|  6> %moinp "d3d-triplete.gbw"
|  7> 
|  8> %casscf
|  9>   nel 2
| 10>   norb 2
| 11>   mult 1,3
| 12>   nroots 1,1
| 13>   # OrbPrint borrado porque ya no existe ahí
| 14>   PTMethod FIC_CASPT2
| 15> end
| 16> 
| 17> * xyz 0 3
| 18> C   0.00000   0.00000 -1.75000
| 19> H   1.08250   0.00000 -1.75000
| 20> H  -0.54125   0.93740 -1.75000
| 21> H  -0.54125  -0.93740 -1.75000
| 22> 
| 23> C   0.00000   0.00000  1.75000
| 24> H   0.54125   0.93740  1.75000
| 25> H  -1.08250   0.00000  1.75000
| 26> H   0.54125  -0.93740  1.75000
| 27> *
| 28> 
| 29>                          ****END OF INPUT****
================================================================================

                       ****************************
                       * Single Point Calculation *
                       ****************************

---------------------------------
CARTESIAN COORDINATES (ANGSTROEM)
---------------------------------
  C      0.000000    0.000000   -1.750000
  H      1.082500    0.000000   -1.750000
  H     -0.541250    0.937400   -1.750000
  H     -0.541250   -0.937400   -1.750000
  C      0.000000    0.000000    1.750000
  H      0.541250    0.937400    1.750000
  H     -1.082500    0.000000    1.750000
  H      0.541250   -0.937400    1.750000

----------------------------
CARTESIAN COORDINATES (A.U.)
----------------------------
  NO LB      ZA    FRAG     MASS         X           Y           Z
   0 C     6.0000    0    12.011    0.000000    0.000000   -3.307021
   1 H     1.0000    0     1.008    2.045629    0.000000   -3.307021
   2 H     1.0000    0     1.008   -1.022814    1.771429   -3.307021
   3 H     1.0000    0     1.008   -1.022814   -1.771429   -3.307021
   4 C     6.0000    0    12.011    0.000000    0.000000    3.307021
   5 H     1.0000    0     1.008    1.022814    1.771429    3.307021
   6 H     1.0000    0     1.008   -2.045629    0.000000    3.307021
   7 H     1.0000    0     1.008    1.022814   -1.771429    3.307021

--------------------------------
INTERNAL COORDINATES (ANGSTROEM)
--------------------------------
 C      0   0   0     0.000000000000     0.00000000     0.00000000
 H      1   0   0     1.082500000000     0.00000000     0.00000000
 H      1   2   0     1.082437214115   120.00191878     0.00000000
 H      1   2   3     1.082437214115   120.00191878   180.00000000
 C      1   2   3     3.500000000000    90.00000000   270.00000000
 H      5   1   2     1.082437214115    90.00000000    59.99808122
 H      5   1   2     1.082500000000    90.00000000   180.00000000
 H      5   1   2     1.082437214115    90.00000000   300.00191878

---------------------------
INTERNAL COORDINATES (A.U.)
---------------------------
 C      0   0   0     0.000000000000     0.00000000     0.00000000
 H      1   0   0     2.045628539970     0.00000000     0.00000000
 H      1   2   0     2.045509891841   120.00191878     0.00000000
 H      1   2   3     2.045509891841   120.00191878   180.00000000
 C      1   2   3     6.614041468724    90.00000000   270.00000000
 H      5   1   2     2.045509891841    90.00000000    59.99808122
 H      5   1   2     2.045628539970    90.00000000   180.00000000
 H      5   1   2     2.045509891841    90.00000000   300.00191878

---------------------
BASIS SET INFORMATION
---------------------
There are 2 groups of distinct atoms

 Group   1 Type C   : 7s4p1d contracted to 3s2p1d pattern {511/31/1}
 Group   2 Type H   : 4s1p contracted to 2s1p pattern {31/1}

Atom   0C    basis set group =>   1
Atom   1H    basis set group =>   2
Atom   2H    basis set group =>   2
Atom   3H    basis set group =>   2
Atom   4C    basis set group =>   1
Atom   5H    basis set group =>   2
Atom   6H    basis set group =>   2
Atom   7H    basis set group =>   2

-------------------------
BASIS SET IN INPUT FORMAT
-------------------------

 # Basis set for element : H 
 NewGTO H 
 S 3 
   1      13.0107010000      0.0334854848
   2       1.9622572000      0.2347218709
   3       0.4445379600      0.8137702853
 S 1 
   1       0.1219496200      1.0000000000
 P 1 
   1       0.8000000000      1.0000000000
  end;

 # Basis set for element : C 
 NewGTO C 
 S 5 
   1    1238.4016938000      0.0055173650
   2     186.2900499200      0.0410888285
   3      42.2511763460      0.1822538213
   4      11.6765579320      0.4682845944
   5       3.5930506482      0.4457581734
 S 1 
   1       0.4024514736      1.0000000000
 S 1 
   1       0.1309018267      1.0000000000
 P 3 
   1       9.4680970621      0.0568883320
   2       2.0103545142      0.3129405934
   3       0.5477100471      0.7606501651
 P 1 
   1       0.1526861379      1.0000000000
 D 1 
   1       0.8000000000      1.0000000000
  end;

------------------------------------------------------------------------------
                             ORCA STARTUP CALCULATIONS
------------------------------------------------------------------------------
------------------------------------------------------------------------------
                   ___                                                        
                  /   \      - P O W E R E D   B Y -                         
                 /     \                                                     
                 |  |  |   _    _      __       _____    __    __             
                 |  |  |  | |  | |    /  \     |  _  \  |  |  /  |          
                  \  \/   | |  | |   /    \    | | | |  |  | /  /          
                 / \  \   | |__| |  /  /\  \   | |_| |  |  |/  /          
                |  |  |   |  __  | /  /__\  \  |    /   |      \           
                |  |  |   | |  | | |   __   |  |    \   |  |\   \          
                \     /   | |  | | |  |  |  |  | |\  \  |  | \   \       
                 \___/    |_|  |_| |__|  |__|  |_| \__\ |__|  \__/        
                                                                              
                      - O R C A' S   B I G   F R I E N D -                    
                                      &                                       
                       - I N T E G R A L  F E E D E R -                       
                                                                              
 v1 FN, 2020, v2 2021, v3 2022-2024                                           
------------------------------------------------------------------------------


----------------------
SHARK INTEGRAL PACKAGE
----------------------

Number of atoms                             ...      8
Number of basis functions                   ...     58
Number of shells                            ...     30
Maximum angular momentum                    ...      2
Integral batch strategy                     ... SHARK/LIBINT Hybrid
RI-J (if used) integral strategy            ... SPLIT-RIJ (Revised 2003 algorithm where possible)
Printlevel                                  ...      1
Contraction scheme used                     ... SEGMENTED contraction
Prescreening option                         ... SCHWARTZ
   Thresh                                   ... 2.500e-11
   Tcut                                     ... 2.500e-12
   Tpresel                                  ... 2.500e-12 
Coulomb Range Separation                    ... NOT USED
Exchange Range Separation                   ... NOT USED
Multipole approximations                    ... NOT USED
Finite Nucleus Model                        ... NOT USED
CABS basis                                  ... NOT available
Auxiliary Coulomb fitting basis             ... NOT available
Auxiliary J/K fitting basis                 ... NOT available
Auxiliary Correlation fitting basis         ... NOT available
Auxiliary 'external' fitting basis          ... NOT available

Checking pre-screening integrals            ... done (  0.0 sec) Dimension = 30
   => SHARK Basis and OBASIS are compatible. Storing Pre-screening
Shell pair information
Shell pair cut-off parameter TPreSel        ...   2.5e-12
Total number of shell pairs                 ...       465
Shell pairs after pre-screening             ...       458
Total number of primitive shell pairs       ...      1529
Primitive shell pairs kept                  ...      1260
          la=0 lb=0:    170 shell pairs
          la=1 lb=0:    174 shell pairs
          la=1 lb=1:     55 shell pairs
          la=2 lb=0:     36 shell pairs
          la=2 lb=1:     20 shell pairs
          la=2 lb=2:      3 shell pairs

Checking whether 4 symmetric matrices of dimension 58 fit in memory
:Max Core in MB      =   4096.00
 MB in use           =      1.76
 MB left             =   4094.24
 MB needed           =      0.05
 Data fit in memory  = YES
Calculating Nuclear repulsion               ... done (  0.0 sec) ENN=     31.187995876316 Eh

Diagonalization of the overlap matrix:
Smallest eigenvalue                        ... 1.926e-02
Time for diagonalization                   ...    0.004 sec
Threshold for overlap eigenvalues          ... 1.000e-07
Number of eigenvalues below threshold      ... 0
Time for construction of square roots      ...    0.001 sec
Total time needed                          ...    0.005 sec

-------------------
DFT GRID GENERATION
-------------------

General Integration Accuracy     IntAcc      ... 4.388
Radial Grid Type                 RadialGrid  ... OptM3 with GC (2021)
Angular Grid (max. ang.)         AngularGrid ... 4 (Lebedev-302)
Angular grid pruning method      GridPruning ... 4 (adaptive)
Weight generation scheme         WeightScheme... mBecke (2022)
Basis function cutoff            BFCut       ... 1.0000e-11
Integration weight cutoff        WCut        ... 1.0000e-14
Partially contracted basis set               ... off
Rotationally invariant grid construction     ... off
Angular grids for H and He will be reduced by one unit

Total number of grid points                  ...    31954
Total number of batches                      ...      504
Average number of points per batch           ...       63
Average number of grid points per atom       ...     3994
Grids setup in   0.1 sec
Initializing property integral containers    ... done (  0.0 sec)

SHARK setup successfully completed in   0.2 seconds

Maximum memory used throughout the entire STARTUP-calculation: 11.4 MB
-------------------------------------------------------------------------------
                                 ORCA GUESS
                   Start orbitals & Density for SCF / CASSCF
-------------------------------------------------------------------------------

------------
SCF SETTINGS
------------
Hamiltonian:
 Ab initio Hamiltonian  Method          .... Hartree-Fock(GTOs)


General Settings:
 Integral files         IntName         .... d3d
 Hartree-Fock type      HFTyp           .... CASSCF
 Total Charge           Charge          ....    0
 Multiplicity           Mult            ....    3
 Number of Electrons    NEL             ....   18
 Basis Dimension        Dim             ....   58
 Nuclear Repulsion      ENuc            ....     31.1879958763 Eh

---------------------
INITIAL GUESS: MOREAD
---------------------
Guess MOs are being read from file: d3d-triplete.gbw
Input geometry compatible with but different from current geometry
Input basis set matches current basis set (good)
Occupation numbers will be reassigned to an Aufbau configuration
MOs were renormalized
Gram-Schmidt orthogonalization of all MOs with pivot on actives
                      ------------------
                      INITIAL GUESS DONE (   0.0 sec)
                      ------------------
----------------------
INITIAL GUESS ORBITALS
----------------------
                      0         1         2         3         4         5   
                 -10.19062 -10.19054  -0.67262  -0.66793  -0.41468  -0.41466
                   2.00000   2.00000   2.00000   2.00000   2.00000   2.00000
                  --------  --------  --------  --------  --------  --------
  0C   1s        -0.698438 -0.698573  0.183334  0.185235 -0.000004 -0.000010
  0C   2s        -0.036059 -0.034439 -0.360718 -0.367825  0.000011  0.000017
  0C   3s         0.026183  0.021163 -0.148823 -0.142738 -0.000027  0.000007
  0C   1pz       -0.000414  0.000157 -0.001723  0.001652 -0.000002  0.000001
  0C   1px        0.000000  0.000000  0.000000  0.000000  0.000000  0.329992
  0C   1py        0.000000  0.000000 -0.000000 -0.000002  0.329994 -0.000012
  0C   2pz        0.001347 -0.000539 -0.002582  0.005193  0.000004  0.000001
  0C   2px        0.000000  0.000000  0.000000  0.000000  0.000000  0.119410
  0C   2py       -0.000013 -0.000010  0.000029  0.000050  0.119486 -0.000004
  0C   1dz2       0.001678  0.001838 -0.004230 -0.004009  0.000004  0.000000
  0C   1dxz       0.000000  0.000000  0.000000  0.000000  0.000000  0.000145
  0C   1dyz      -0.000000 -0.000000  0.000001  0.000001  0.000144 -0.000000
  0C   1dx2y2     0.000003  0.000003 -0.000007 -0.000007 -0.013542  0.000001
  0C   1dxy       0.000000  0.000000  0.000000  0.000000  0.000000 -0.013539
  1H   1s         0.002879  0.003395 -0.132869 -0.135394 -0.132976  0.230345
  1H   2s        -0.005896 -0.004914 -0.018289 -0.019043 -0.053970  0.093552
  1H   1pz       -0.000199  0.000078  0.000001 -0.000124 -0.000094  0.000163
  1H   1px       -0.001806 -0.001870  0.013896  0.014008  0.007725 -0.004317
  1H   1py        0.001044  0.001081 -0.008024 -0.008090  0.004606  0.007729
  2H   1s         0.002885  0.003401 -0.132888 -0.135413  0.265956 -0.000004
  2H   2s        -0.005883 -0.004908 -0.018301 -0.019096  0.107956 -0.000003
  2H   1pz       -0.000199  0.000078  0.000001 -0.000123  0.000187  0.000000
  2H   1px        0.000000  0.000000  0.000000  0.000000  0.000000  0.009071
  2H   1py       -0.002088 -0.002162  0.016051  0.016182 -0.008775 -0.000000
  3H   1s         0.002879  0.003395 -0.132869 -0.135394 -0.132976 -0.230322
  3H   2s        -0.005896 -0.004914 -0.018289 -0.019043 -0.053970 -0.093546
  3H   1pz       -0.000199  0.000078  0.000001 -0.000124 -0.000094 -0.000163
  3H   1px        0.001806  0.001870 -0.013896 -0.014008 -0.007725 -0.004315
  3H   1py        0.001044  0.001081 -0.008024 -0.008090  0.004606 -0.007729
  4C   1s         0.698438 -0.698573  0.183334 -0.185235  0.000004  0.000010
  4C   2s         0.036059 -0.034439 -0.360718  0.367825 -0.000011 -0.000017
  4C   3s        -0.026183  0.021163 -0.148823  0.142738  0.000027 -0.000007
  4C   1pz       -0.000414 -0.000157  0.001723  0.001652 -0.000002  0.000001
  4C   1px        0.000000  0.000000  0.000000  0.000000  0.000000  0.329992
  4C   1py        0.000000 -0.000000  0.000000 -0.000002  0.329994 -0.000012
  4C   2pz        0.001347  0.000539  0.002582  0.005193  0.000004  0.000001
  4C   2px        0.000000  0.000000  0.000000  0.000000  0.000000  0.119410
  4C   2py       -0.000013  0.000010 -0.000029  0.000050  0.119486 -0.000004
  4C   1dz2      -0.001678  0.001838 -0.004230  0.004009 -0.000004 -0.000000
  4C   1dxz       0.000000  0.000000  0.000000  0.000000  0.000000 -0.000145
  4C   1dyz       0.000000 -0.000000  0.000001 -0.000001 -0.000144  0.000000
  4C   1dx2y2    -0.000003  0.000003 -0.000007  0.000007  0.013542 -0.000001
  4C   1dxy       0.000000  0.000000  0.000000  0.000000  0.000000  0.013539
  5H   1s        -0.002879  0.003395 -0.132869  0.135394  0.132976  0.230322
  5H   2s         0.005896 -0.004914 -0.018289  0.019043  0.053970  0.093546
  5H   1pz       -0.000199 -0.000078 -0.000001 -0.000124 -0.000094 -0.000163
  5H   1px        0.001806 -0.001870  0.013896 -0.014008 -0.007725 -0.004315
  5H   1py        0.001044 -0.001081  0.008024 -0.008090  0.004606 -0.007729
  6H   1s        -0.002879  0.003395 -0.132869  0.135394  0.132976 -0.230345
  6H   2s         0.005896 -0.004914 -0.018289  0.019043  0.053970 -0.093552
  6H   1pz       -0.000199 -0.000078 -0.000001 -0.000124 -0.000094  0.000163
  6H   1px       -0.001806  0.001870 -0.013896  0.014008  0.007725 -0.004317
  6H   1py        0.001044 -0.001081  0.008024 -0.008090  0.004606  0.007729
  7H   1s        -0.002885  0.003401 -0.132888  0.135413 -0.265956  0.000004
  7H   2s         0.005883 -0.004908 -0.018301  0.019096 -0.107956  0.000003
  7H   1pz       -0.000199 -0.000078 -0.000001 -0.000123  0.000187  0.000000
  7H   1px        0.000000  0.000000  0.000000  0.000000  0.000000  0.009071
  7H   1py       -0.002088  0.002162 -0.016051  0.016182 -0.008775 -0.000000
                      6         7         8         9        10        11   
                  -0.41154  -0.41152  -0.24104  -0.20882   0.06823   0.09861
                   2.00000   2.00000   2.00000   0.00000   0.00000   0.00000
                  --------  --------  --------  --------  --------  --------
  0C   1s         0.000005 -0.000006 -0.006461  0.008407 -0.111788 -0.113536
  0C   2s        -0.000015  0.000012  0.015886 -0.026219  0.228254  0.218405
  0C   3s         0.000037  0.000005  0.016629 -0.005860  1.668865  1.808697
  0C   1pz        0.000002  0.000000 -0.418343 -0.455314  0.030324 -0.041055
  0C   1px        0.000000  0.333239  0.000000  0.000000  0.000010 -0.000001
  0C   1py       -0.333236 -0.000009 -0.000001 -0.000001 -0.000007  0.000013
  0C   2pz       -0.000004  0.000000 -0.349291 -0.364876 -0.001198  0.012579
  0C   2px        0.000000  0.120542  0.000000  0.000000  0.000004 -0.000001
  0C   2py       -0.120604 -0.000003  0.000002  0.000006 -0.000048 -0.000008
  0C   1dz2      -0.000004  0.000000 -0.001964  0.002505  0.006602  0.011209
  0C   1dxz       0.000000 -0.000253  0.000000  0.000000 -0.000000 -0.000000
  0C   1dyz       0.000253  0.000000 -0.000008 -0.000009 -0.000000 -0.000002
  0C   1dx2y2     0.013722  0.000000 -0.000000 -0.000000  0.000006  0.000005
  0C   1dxy      -0.000000 -0.013720  0.000000  0.000000 -0.000000  0.000000
  1H   1s         0.134650  0.233247  0.007085 -0.010529 -0.035653 -0.065091
  1H   2s         0.051905  0.089953 -0.008854  0.010426 -0.828135 -0.876956
  1H   1pz       -0.000158 -0.000274 -0.012998 -0.013713  0.000652 -0.001386
  1H   1px       -0.007686 -0.004247 -0.000090  0.000101 -0.003910 -0.006373
  1H   1py       -0.004630  0.007690  0.000052 -0.000059  0.002257  0.003680
  2H   1s        -0.269307 -0.000003  0.007084 -0.010533 -0.035642 -0.065072
  2H   2s        -0.103837 -0.000002 -0.008854  0.010430 -0.828074 -0.877007
  2H   1pz        0.000317  0.000000 -0.013000 -0.013715  0.000652 -0.001387
  2H   1px        0.000000  0.009073  0.000000  0.000000  0.000000 -0.000000
  2H   1py        0.008683 -0.000000 -0.000103  0.000117 -0.004518 -0.007363
  3H   1s         0.134650 -0.233232  0.007085 -0.010529 -0.035667 -0.065089
  3H   2s         0.051905 -0.089949 -0.008854  0.010426 -0.828140 -0.876955
  3H   1pz       -0.000158  0.000274 -0.012998 -0.013713  0.000652 -0.001386
  3H   1px        0.007686 -0.004245  0.000090 -0.000101  0.003909  0.006373
  3H   1py       -0.004630 -0.007689  0.000052 -0.000059  0.002257  0.003680
  4C   1s         0.000005 -0.000006 -0.006461 -0.008407 -0.111788  0.113536
  4C   2s        -0.000015  0.000012  0.015886  0.026219  0.228254 -0.218405
  4C   3s         0.000037  0.000005  0.016629  0.005860  1.668865 -1.808697
  4C   1pz       -0.000002 -0.000000  0.418343 -0.455314 -0.030324 -0.041055
  4C   1px        0.000000 -0.333239  0.000000  0.000000 -0.000010 -0.000001
  4C   1py        0.333236  0.000009  0.000001 -0.000001  0.000007  0.000013
  4C   2pz        0.000004 -0.000000  0.349291 -0.364876  0.001198  0.012579
  4C   2px        0.000000 -0.120542  0.000000  0.000000 -0.000004 -0.000001
  4C   2py        0.120604  0.000003 -0.000002  0.000006  0.000048 -0.000008
  4C   1dz2      -0.000004  0.000000 -0.001964 -0.002505  0.006602 -0.011209
  4C   1dxz      -0.000000 -0.000253  0.000000  0.000000 -0.000000  0.000000
  4C   1dyz       0.000253  0.000000 -0.000008  0.000009 -0.000000  0.000002
  4C   1dx2y2     0.013722  0.000000 -0.000000  0.000000  0.000006 -0.000005
  4C   1dxy       0.000000 -0.013720  0.000000  0.000000 -0.000000 -0.000000
  5H   1s         0.134650 -0.233232  0.007085  0.010529 -0.035667  0.065089
  5H   2s         0.051905 -0.089949 -0.008854 -0.010426 -0.828140  0.876955
  5H   1pz        0.000158 -0.000274  0.012998 -0.013713 -0.000652 -0.001386
  5H   1px       -0.007686  0.004245 -0.000090 -0.000101 -0.003909  0.006373
  5H   1py        0.004630  0.007689 -0.000052 -0.000059 -0.002257  0.003680
  6H   1s         0.134650  0.233247  0.007085  0.010529 -0.035653  0.065091
  6H   2s         0.051905  0.089953 -0.008854 -0.010426 -0.828135  0.876956
  6H   1pz        0.000158  0.000274  0.012998 -0.013713 -0.000652 -0.001386
  6H   1px        0.007686  0.004247  0.000090  0.000101  0.003910 -0.006373
  6H   1py        0.004630 -0.007690 -0.000052 -0.000059 -0.002257  0.003680
  7H   1s        -0.269307 -0.000003  0.007084  0.010533 -0.035642  0.065072
  7H   2s        -0.103837 -0.000002 -0.008854 -0.010430 -0.828074  0.877007
  7H   1pz       -0.000317 -0.000000  0.013000 -0.013715 -0.000652 -0.001387
  7H   1px        0.000000 -0.009073  0.000000  0.000000 -0.000000 -0.000000
  7H   1py       -0.008683  0.000000  0.000103  0.000117  0.004518 -0.007363
                     12        13        14        15        16        17   
                   0.14419   0.14419   0.15079   0.15080   0.38191   0.42680
                   0.00000   0.00000   0.00000   0.00000   0.00000   0.00000
                  --------  --------  --------  --------  --------  --------
  0C   1s         0.000005  0.000008  0.000011 -0.000006 -0.046630  0.000001
  0C   2s        -0.000007 -0.000022 -0.000038  0.000020  0.517783  0.000016
  0C   3s         0.000041 -0.000147 -0.000021  0.000138 -1.614493  0.000133
  0C   1pz        0.000011  0.000001 -0.000010  0.000004  0.433111 -0.000007
  0C   1px        0.186733  0.254596  0.194188 -0.235699  0.000028  0.130152
  0C   1py       -0.254582  0.186725 -0.235686 -0.194179  0.000025 -0.027499
  0C   2pz       -0.000010  0.000001  0.000006 -0.000001 -0.369967  0.000005
  0C   2px        0.067570  0.786078  0.070243 -0.862487  0.000014 -1.115087
  0C   2py       -0.786068  0.067624 -0.862487 -0.070298 -0.000143  0.361274
  0C   1dz2      -0.000003  0.000001 -0.000003 -0.000002 -0.055813  0.000000
  0C   1dxz       0.000082 -0.001288 -0.000147 -0.001136 -0.000000 -0.003632
  0C   1dyz       0.001287  0.000082 -0.001136  0.000147  0.000016 -0.000760
  0C   1dx2y2    -0.004319 -0.007662 -0.007230  0.007996  0.000002  0.009028
  0C   1dxy      -0.007661  0.004321 -0.007995 -0.007233 -0.000001 -0.065777
  1H   1s         0.118683 -0.095410  0.101988  0.137207  0.310478  0.573525
  1H   2s        -0.573854 -1.116050 -0.591383  1.145300  0.290410  0.367090
  1H   1pz       -0.000548 -0.001163  0.000456 -0.001159  0.017139 -0.004293
  1H   1px       -0.006535  0.003738 -0.007481 -0.004652  0.009121 -0.014760
  1H   1py        0.000280  0.006700 -0.001477 -0.007707 -0.005269 -0.028726
  2H   1s         0.023285  0.150485  0.067830 -0.156917  0.310546 -0.144396
  2H   2s         1.253523  0.061121  1.287676 -0.060524  0.290494 -0.724260
  2H   1pz        0.001281  0.000106 -0.001232  0.000185  0.017144 -0.000779
  2H   1px        0.005133  0.006458  0.005287 -0.008851  0.000001 -0.062709
  2H   1py        0.002997 -0.004964  0.002718  0.005059  0.010532  0.002749
  3H   1s        -0.141995 -0.055074 -0.169843  0.019714  0.310442 -0.429131
  3H   2s        -0.679727  1.055120 -0.696217 -1.084955  0.290408  0.356986
  3H   1pz       -0.000732  0.001057  0.000775  0.000975  0.017139  0.005071
  3H   1px        0.001650 -0.005006  0.002532  0.004307 -0.009122 -0.011473
  3H   1py       -0.008467 -0.001488 -0.010439  0.002312 -0.005271  0.028537
  4C   1s        -0.000005 -0.000008  0.000011 -0.000006 -0.046630 -0.000001
  4C   2s         0.000007  0.000022 -0.000038  0.000020  0.517783 -0.000016
  4C   3s        -0.000041  0.000147 -0.000021  0.000138 -1.614493 -0.000133
  4C   1pz        0.000011  0.000001  0.000010 -0.000004 -0.433111 -0.000007
  4C   1px        0.186733  0.254596 -0.194188  0.235699 -0.000028  0.130152
  4C   1py       -0.254582  0.186725  0.235686  0.194179 -0.000025 -0.027499
  4C   2pz       -0.000010  0.000001 -0.000006  0.000001  0.369967  0.000005
  4C   2px        0.067570  0.786078 -0.070243  0.862487 -0.000014 -1.115087
  4C   2py       -0.786068  0.067624  0.862487  0.070298  0.000143  0.361274
  4C   1dz2       0.000003 -0.000001 -0.000003 -0.000002 -0.055813 -0.000000
  4C   1dxz      -0.000082  0.001288 -0.000147 -0.001136 -0.000000  0.003632
  4C   1dyz      -0.001287 -0.000082 -0.001136  0.000147  0.000016  0.000760
  4C   1dx2y2     0.004319  0.007662 -0.007230  0.007996  0.000002 -0.009028
  4C   1dxy       0.007661 -0.004321 -0.007995 -0.007233 -0.000001  0.065777
  5H   1s         0.141995  0.055074 -0.169843  0.019714  0.310442  0.429131
  5H   2s         0.679727 -1.055120 -0.696217 -1.084955  0.290408 -0.356986
  5H   1pz       -0.000732  0.001057 -0.000775 -0.000975 -0.017139  0.005071
  5H   1px        0.001650 -0.005006 -0.002532 -0.004307  0.009122 -0.011473
  5H   1py       -0.008467 -0.001488  0.010439 -0.002312  0.005271  0.028537
  6H   1s        -0.118683  0.095410  0.101988  0.137207  0.310478 -0.573525
  6H   2s         0.573854  1.116050 -0.591383  1.145300  0.290410 -0.367090
  6H   1pz       -0.000548 -0.001163 -0.000456  0.001159 -0.017139 -0.004293
  6H   1px       -0.006535  0.003738  0.007481  0.004652 -0.009121 -0.014760
  6H   1py        0.000280  0.006700  0.001477  0.007707  0.005269 -0.028726
  7H   1s        -0.023285 -0.150485  0.067830 -0.156917  0.310546  0.144396
  7H   2s        -1.253523 -0.061121  1.287676 -0.060524  0.290494  0.724260
  7H   1pz        0.001281  0.000106  0.001232 -0.000185 -0.017144 -0.000779
  7H   1px        0.005133  0.006458 -0.005287  0.008851 -0.000001 -0.062709
  7H   1py        0.002997 -0.004964 -0.002718 -0.005059 -0.010532  0.002749
                     18        19        20        21        22        23   
                   0.42682   0.47163   0.47167   0.47302   0.48077   0.62489
                   0.00000   0.00000   0.00000   0.00000   0.00000   0.00000
                  --------  --------  --------  --------  --------  --------
  0C   1s         0.000039 -0.000003  0.000179 -0.030316 -0.042682 -0.209030
  0C   2s        -0.000414  0.000001 -0.001789  0.428210  0.473541  1.219186
  0C   3s         0.001169 -0.000164  0.004888 -1.345568 -1.357839 -2.632165
  0C   1pz        0.000249  0.000015  0.001822 -0.481952 -0.546270 -0.010809
  0C   1px       -0.027507 -0.210485 -0.022651  0.000001 -0.000063 -0.000012
  0C   1py       -0.130039  0.022648 -0.210364 -0.000026 -0.000638  0.000180
  0C   2pz       -0.000266 -0.000014 -0.001906  0.530564  0.573240  0.024166
  0C   2px        0.361266  1.107458  0.397522  0.000281  0.001378  0.000186
  0C   2py        1.114844 -0.397525  1.107180  0.000465  0.003504 -0.000093
  0C   1dz2       0.000019 -0.000003  0.000119 -0.063435 -0.045587  0.079555
  0C   1dxz      -0.000760 -0.004700  0.000703 -0.000000  0.000002 -0.000000
  0C   1dyz       0.003628 -0.000703 -0.004702 -0.000016 -0.000036 -0.000003
  0C   1dx2y2     0.065797 -0.009774  0.063902  0.000049  0.000226  0.000077
  0C   1dxy       0.009029  0.063875  0.009775  0.000008  0.000035  0.000008
  1H   1s         0.164295 -0.547516  0.138539  0.335262  0.274397 -0.335949
  1H   2s        -0.624484 -0.270600 -0.673170  0.174777  0.196495  0.901560
  1H   1pz       -0.003367 -0.005409  0.004076 -0.015413 -0.014632  0.001793
  1H   1px        0.030444  0.028046  0.025716  0.014923  0.008308 -0.065962
  1H   1py        0.044538  0.022679  0.054008 -0.008571 -0.004558  0.038135
  2H   1s        -0.579068  0.153162 -0.544657  0.334888  0.272163 -0.336334
  2H   2s        -0.005909  0.717653  0.101172  0.175329  0.199230  0.902344
  2H   1pz        0.005412 -0.000781 -0.006650 -0.015412 -0.014672  0.001789
  2H   1px       -0.001043  0.068462  0.000657  0.000004  0.000006  0.000008
  2H   1py       -0.003432 -0.002376  0.013543  0.017195  0.009522 -0.076253
  3H   1s         0.414401  0.394392  0.403806  0.335431  0.275290 -0.335827
  3H   2s         0.629632 -0.446877  0.569486  0.175470  0.200588  0.901730
  3H   1pz       -0.002018  0.006192  0.002723 -0.015412 -0.014636  0.001794
  3H   1px       -0.026840  0.026551 -0.021822 -0.014920 -0.008293  0.065968
  3H   1py        0.047823 -0.024852  0.055499 -0.008574 -0.004557  0.038130
  4C   1s        -0.000039 -0.000003  0.000179  0.030316 -0.042682 -0.209030
  4C   2s         0.000414  0.000001 -0.001789 -0.428210  0.473541  1.219186
  4C   3s        -0.001169 -0.000164  0.004888  1.345568 -1.357839 -2.632165
  4C   1pz        0.000249 -0.000015 -0.001822 -0.481952  0.546270  0.010809
  4C   1px       -0.027507  0.210485  0.022651  0.000001  0.000063  0.000012
  4C   1py       -0.130039 -0.022648  0.210364 -0.000026  0.000638 -0.000180
  4C   2pz       -0.000266  0.000014  0.001906  0.530564 -0.573240 -0.024166
  4C   2px        0.361266 -1.107458 -0.397522  0.000281 -0.001378 -0.000186
  4C   2py        1.114844  0.397525 -1.107180  0.000465 -0.003504  0.000093
  4C   1dz2      -0.000019 -0.000003  0.000119  0.063435 -0.045587  0.079555
  4C   1dxz       0.000760 -0.004700  0.000703  0.000000  0.000002 -0.000000
  4C   1dyz      -0.003628 -0.000703 -0.004702  0.000016 -0.000036 -0.000003
  4C   1dx2y2    -0.065797 -0.009774  0.063902 -0.000049  0.000226  0.000077
  4C   1dxy      -0.009029  0.063875  0.009775 -0.000008  0.000035  0.000008
  5H   1s        -0.414401  0.394392  0.403806 -0.335431  0.275290 -0.335827
  5H   2s        -0.629632 -0.446877  0.569486 -0.175470  0.200588  0.901730
  5H   1pz       -0.002018 -0.006192 -0.002723 -0.015412  0.014636 -0.001794
  5H   1px       -0.026840 -0.026551  0.021822 -0.014920  0.008293 -0.065968
  5H   1py        0.047823  0.024852 -0.055499 -0.008574  0.004557 -0.038130
  6H   1s        -0.164295 -0.547516  0.138539 -0.335262  0.274397 -0.335949
  6H   2s         0.624484 -0.270600 -0.673170 -0.174777  0.196495  0.901560
  6H   1pz       -0.003367  0.005409 -0.004076 -0.015413  0.014632 -0.001793
  6H   1px        0.030444 -0.028046 -0.025716  0.014923 -0.008308  0.065962
  6H   1py        0.044538 -0.022679 -0.054008 -0.008571  0.004558 -0.038135
  7H   1s         0.579068  0.153162 -0.544657 -0.334888  0.272163 -0.336334
  7H   2s         0.005909  0.717653  0.101172 -0.175329  0.199230  0.902344
  7H   1pz        0.005412  0.000781  0.006650 -0.015412  0.014672 -0.001789
  7H   1px       -0.001043 -0.068462 -0.000657  0.000004 -0.000006 -0.000008
  7H   1py       -0.003432  0.002376 -0.013543  0.017195 -0.009522  0.076253
                     24        25        26        27        28        29   
                   0.64462   0.68917   0.68919   0.69516   0.69520   0.74452
                   0.00000   0.00000   0.00000   0.00000   0.00000   0.00000
                  --------  --------  --------  --------  --------  --------
  0C   1s        -0.166663  0.000002 -0.000079  0.000002 -0.000006  0.148076
  0C   2s         0.921677 -0.000030  0.000474 -0.000006  0.000226 -1.164394
  0C   3s        -2.079218  0.000140 -0.001053 -0.000066 -0.000648  2.902662
  0C   1pz       -0.267642 -0.000001 -0.000038 -0.000016  0.000420 -0.483160
  0C   1px       -0.000011  0.660309  0.029400 -0.681294 -0.016844 -0.000001
  0C   1py        0.000277  0.029402 -0.660354 -0.016845  0.681321  0.000392
  0C   2pz        0.336885  0.000002  0.000046  0.000022 -0.000556  0.662603
  0C   2px        0.000096 -0.992627 -0.123871  1.120468  0.075225 -0.000112
  0C   2py       -0.000346 -0.123951  0.992791  0.075284 -1.120612 -0.000699
  0C   1dz2       0.096859 -0.000001  0.000018  0.000001 -0.000047  0.029617
  0C   1dxz       0.000001 -0.001948  0.001464 -0.001230  0.001370  0.000001
  0C   1dyz      -0.000012  0.001464  0.001945  0.001368  0.001231 -0.000023
  0C   1dx2y2     0.000069 -0.011499 -0.113175  0.011555  0.102651  0.000034
  0C   1dxy       0.000007  0.113192 -0.011496 -0.102669  0.011554  0.000006
  1H   1s        -0.408381 -0.437914 -0.179420  0.386289  0.149622 -0.159553
  1H   2s         0.846995  1.145450  0.298395 -1.185308 -0.200249 -0.652321
  1H   1pz       -0.000578 -0.002645  0.000780 -0.001794  0.001074  0.018059
  1H   1px       -0.059860 -0.084939 -0.083774  0.089929  0.075868  0.020708
  1H   1py        0.034601  0.064452 -0.018096 -0.061697  0.011556 -0.011940
  2H   1s        -0.408714  0.063655  0.468737 -0.063781 -0.408917 -0.159847
  2H   2s         0.847679 -0.314549 -1.140769  0.419201  1.126716 -0.651787
  2H   1pz       -0.000580  0.001996  0.001899  0.001833  0.001006  0.018048
  2H   1px        0.000008  0.056538 -0.017226 -0.045768  0.016646  0.000008
  2H   1py       -0.069223 -0.002072  0.123330 -0.002486 -0.124104  0.023803
  3H   1s        -0.408288  0.374280 -0.289615 -0.322540  0.260042 -0.159521
  3H   2s         0.846860 -0.831040  0.843398  0.766204 -0.926511 -0.653000
  3H   1pz       -0.000579  0.000648 -0.002678 -0.000038 -0.002103  0.018058
  3H   1px        0.059863 -0.071820  0.072053  0.073365 -0.071275 -0.020711
  3H   1py        0.034594 -0.091331 -0.004973  0.085423 -0.005013 -0.011951
  4C   1s         0.166663  0.000002 -0.000079 -0.000002  0.000006 -0.148076
  4C   2s        -0.921677 -0.000030  0.000474  0.000006 -0.000226  1.164394
  4C   3s         2.079218  0.000140 -0.001053  0.000066  0.000648 -2.902662
  4C   1pz       -0.267642  0.000001  0.000038 -0.000016  0.000420 -0.483160
  4C   1px       -0.000011 -0.660309 -0.029400 -0.681294 -0.016844 -0.000001
  4C   1py        0.000277 -0.029402  0.660354 -0.016845  0.681321  0.000392
  4C   2pz        0.336885 -0.000002 -0.000046  0.000022 -0.000556  0.662603
  4C   2px        0.000096  0.992627  0.123871  1.120468  0.075225 -0.000112
  4C   2py       -0.000346  0.123951 -0.992791  0.075284 -1.120612 -0.000699
  4C   1dz2      -0.096859 -0.000001  0.000018 -0.000001  0.000047 -0.029617
  4C   1dxz      -0.000001 -0.001948  0.001464  0.001230 -0.001370 -0.000001
  4C   1dyz       0.000012  0.001464  0.001945 -0.001368 -0.001231  0.000023
  4C   1dx2y2    -0.000069 -0.011499 -0.113175 -0.011555 -0.102651 -0.000034
  4C   1dxy      -0.000007  0.113192 -0.011496  0.102669 -0.011554 -0.000006
  5H   1s         0.408288  0.374280 -0.289615  0.322540 -0.260042  0.159521
  5H   2s        -0.846860 -0.831040  0.843398 -0.766204  0.926511  0.653000
  5H   1pz       -0.000579 -0.000648  0.002678 -0.000038 -0.002103  0.018058
  5H   1px        0.059863  0.071820 -0.072053  0.073365 -0.071275 -0.020711
  5H   1py        0.034594  0.091331  0.004973  0.085423 -0.005013 -0.011951
  6H   1s         0.408381 -0.437914 -0.179420 -0.386289 -0.149622  0.159553
  6H   2s        -0.846995  1.145450  0.298395  1.185308  0.200249  0.652321
  6H   1pz       -0.000578  0.002645 -0.000780 -0.001794  0.001074  0.018059
  6H   1px       -0.059860  0.084939  0.083774  0.089929  0.075868  0.020708
  6H   1py        0.034601 -0.064452  0.018096 -0.061697  0.011556 -0.011940
  7H   1s         0.408714  0.063655  0.468737  0.063781  0.408917  0.159847
  7H   2s        -0.847679 -0.314549 -1.140769 -0.419201 -1.126716  0.651787
  7H   1pz       -0.000580 -0.001996 -0.001899  0.001833  0.001006  0.018048
  7H   1px        0.000008 -0.056538  0.017226 -0.045768  0.016646  0.000008
  7H   1py       -0.069223  0.002072 -0.123330 -0.002486 -0.124104  0.023803
                     30        31        32        33        34        35   
                   1.19885   1.19888   1.19892   1.19895   1.48275   1.48275
                   0.00000   0.00000   0.00000   0.00000   0.00000   0.00000
                  --------  --------  --------  --------  --------  --------
  0C   1s         0.000000 -0.000001 -0.000000  0.000001  0.030735  0.030245
  0C   2s        -0.000001  0.000015 -0.000000 -0.000003 -0.280807 -0.278113
  0C   3s         0.000001 -0.000042  0.000001  0.000011 -0.221833 -0.200332
  0C   1pz        0.000009  0.000046  0.000010  0.000035 -0.004941  0.000988
  0C   1px       -0.001974 -0.001434  0.002256  0.001529  0.000014  0.000014
  0C   1py       -0.001436  0.001976  0.001529 -0.002253 -0.000025 -0.000026
  0C   2pz        0.000003 -0.000035  0.000001 -0.000020  0.009460 -0.002967
  0C   2px        0.002849  0.018655 -0.002569 -0.020988 -0.000007 -0.000007
  0C   2py        0.018668 -0.002855 -0.020982  0.002565 -0.000003 -0.000001
  0C   1dz2       0.000000 -0.000001 -0.000000  0.000000 -0.014304 -0.015378
  0C   1dxz       0.314685  0.000012  0.314652  0.000020 -0.000001 -0.000000
  0C   1dyz       0.000016 -0.314644  0.000023 -0.314611  0.000000  0.000000
  0C   1dx2y2     0.000168  0.006635 -0.000213 -0.007806 -0.000008 -0.000008
  0C   1dxy      -0.006638  0.000168  0.007804 -0.000213 -0.000006 -0.000006
  1H   1s         0.007700  0.000932 -0.009156 -0.001340  0.034247  0.039785
  1H   2s        -0.014240 -0.023067  0.016744  0.026979  0.127721  0.110773
  1H   1pz        0.374928  0.216506  0.374891  0.216498  0.000654 -0.000005
  1H   1px       -0.004323  0.003106  0.005198 -0.003656 -0.207020 -0.206077
  1H   1py       -0.002321  0.007441  0.002673 -0.008831 -0.386805 -0.386761
  2H   1s        -0.003049 -0.007126  0.003417  0.008597  0.034266  0.039803
  2H   2s        -0.012876  0.023879  0.014991 -0.027990  0.127709  0.110760
  2H   1pz        0.000031 -0.432972  0.000040 -0.432931  0.000655 -0.000005
  2H   1px       -0.009015  0.000389  0.010660 -0.000481  0.438490  0.437980
  2H   1py        0.000398  0.002752 -0.000502 -0.003366  0.014125  0.014920
  3H   1s        -0.004654  0.006208  0.005740 -0.007259  0.034258  0.039794
  3H   2s         0.027117 -0.000790 -0.031736  0.001004  0.127706  0.110762
  3H   1pz       -0.374959  0.216460 -0.374930  0.216437  0.000655 -0.000005
  3H   1px       -0.004315 -0.002315  0.005179  0.002662 -0.231470 -0.231905
  3H   1py        0.003103  0.007449 -0.003645 -0.008850  0.372681  0.371842
  4C   1s        -0.000000  0.000001 -0.000000  0.000001 -0.030735  0.030245
  4C   2s         0.000001 -0.000015 -0.000000 -0.000003  0.280807 -0.278113
  4C   3s        -0.000001  0.000042  0.000001  0.000011  0.221833 -0.200332
  4C   1pz        0.000009  0.000046 -0.000010 -0.000035 -0.004941 -0.000988
  4C   1px       -0.001974 -0.001434 -0.002256 -0.001529  0.000014 -0.000014
  4C   1py       -0.001436  0.001976 -0.001529  0.002253 -0.000025  0.000026
  4C   2pz        0.000003 -0.000035 -0.000001  0.000020  0.009460  0.002967
  4C   2px        0.002849  0.018655  0.002569  0.020988 -0.000007  0.000007
  4C   2py        0.018668 -0.002855  0.020982 -0.002565 -0.000003  0.000001
  4C   1dz2      -0.000000  0.000001 -0.000000  0.000000  0.014304 -0.015378
  4C   1dxz      -0.314685 -0.000012  0.314652  0.000020  0.000001 -0.000000
  4C   1dyz      -0.000016  0.314644  0.000023 -0.314611 -0.000000  0.000000
  4C   1dx2y2    -0.000168 -0.006635 -0.000213 -0.007806  0.000008 -0.000008
  4C   1dxy       0.006638 -0.000168  0.007804 -0.000213  0.000006 -0.000006
  5H   1s         0.004654 -0.006208  0.005740 -0.007259 -0.034258  0.039794
  5H   2s        -0.027117  0.000790 -0.031736  0.001004 -0.127706  0.110762
  5H   1pz       -0.374959  0.216460  0.374930 -0.216437  0.000655  0.000005
  5H   1px       -0.004315 -0.002315 -0.005179 -0.002662 -0.231470  0.231905
  5H   1py        0.003103  0.007449  0.003645  0.008850  0.372681 -0.371842
  6H   1s        -0.007700 -0.000932 -0.009156 -0.001340 -0.034247  0.039785
  6H   2s         0.014240  0.023067  0.016744  0.026979 -0.127721  0.110773
  6H   1pz        0.374928  0.216506 -0.374891 -0.216498  0.000654  0.000005
  6H   1px       -0.004323  0.003106 -0.005198  0.003656 -0.207020  0.206077
  6H   1py       -0.002321  0.007441 -0.002673  0.008831 -0.386805  0.386761
  7H   1s         0.003049  0.007126  0.003417  0.008597 -0.034266  0.039803
  7H   2s         0.012876 -0.023879  0.014991 -0.027990 -0.127709  0.110760
  7H   1pz        0.000031 -0.432972 -0.000040  0.432931  0.000655  0.000005
  7H   1px       -0.009015  0.000389 -0.010660  0.000481  0.438490 -0.437980
  7H   1py        0.000398  0.002752  0.000502  0.003366  0.014125 -0.014920
                     36        37        38        39        40        41   
                   1.59077   1.59078   1.62968   1.62969   1.71744   1.79247
                   0.00000   0.00000   0.00000   0.00000   0.00000   0.00000
                  --------  --------  --------  --------  --------  --------
  0C   1s         0.000006  0.000006  0.000006 -0.000005  0.004450 -0.011543
  0C   2s         0.000034 -0.000039  0.000028  0.000028 -0.042373  0.106177
  0C   3s        -0.000101  0.000057 -0.000085 -0.000038  0.124066  0.061288
  0C   1pz        0.000002  0.000000  0.000000 -0.000011 -0.190686  0.093236
  0C   1px       -0.201501  0.085211 -0.204836 -0.092166  0.000002 -0.000008
  0C   1py        0.085214  0.201499  0.092169 -0.204835  0.000007 -0.000013
  0C   2pz       -0.000003 -0.000003  0.000001 -0.000000 -0.236058  0.351285
  0C   2px        0.671088  0.349381  0.692747 -0.331432  0.000004  0.000006
  0C   2py        0.349362 -0.671112  0.331414  0.692767 -0.000021  0.000023
  0C   1dz2       0.000001  0.000027  0.000001 -0.000028  0.024651  0.288161
  0C   1dxz      -0.006089  0.000179  0.006879  0.000250  0.000005 -0.000004
  0C   1dyz       0.000179  0.006088 -0.000250  0.006878 -0.000014  0.000008
  0C   1dx2y2     0.013444  0.286233  0.013794 -0.280242  0.000007  0.000001
  0C   1dxy      -0.286224  0.013454 -0.280234 -0.013804  0.000000 -0.000001
  1H   1s        -0.190766 -0.194443 -0.229921  0.204977 -0.006245  0.038050
  1H   2s        -0.249124 -0.222386 -0.192332  0.186476 -0.025411 -0.043073
  1H   1pz       -0.006028 -0.003043  0.007031 -0.003589  0.458101 -0.402297
  1H   1px       -0.319208  0.126044 -0.321414 -0.128260  0.005435  0.103096
  1H   1py       -0.112488  0.483399 -0.112372 -0.486676 -0.004756 -0.065567
  2H   1s        -0.073018  0.262443 -0.062561 -0.301622 -0.006233  0.038043
  2H   2s        -0.067971  0.326970 -0.065279 -0.259827 -0.025405 -0.043077
  2H   1pz        0.000374  0.006741 -0.000398  0.007906  0.458112 -0.402299
  2H   1px       -0.545650  0.018256 -0.549569 -0.019361  0.001414  0.005220
  2H   1py       -0.004709  0.256993 -0.003484 -0.258562  0.007096  0.122063
  3H   1s         0.263789 -0.067961  0.292487  0.096603 -0.006244  0.038053
  3H   2s         0.317179 -0.104642  0.257684  0.073396 -0.025416 -0.043059
  3H   1pz        0.005652 -0.003691 -0.006632 -0.004279  0.458088 -0.402286
  3H   1px       -0.339071 -0.123974 -0.341174  0.123800 -0.006848 -0.108319
  3H   1py        0.137485  0.463530  0.139639 -0.466912 -0.002308 -0.056521
  4C   1s        -0.000006 -0.000006  0.000006 -0.000005  0.004450  0.011543
  4C   2s        -0.000034  0.000039  0.000028  0.000028 -0.042373 -0.106177
  4C   3s         0.000101 -0.000057 -0.000085 -0.000038  0.124066 -0.061288
  4C   1pz        0.000002  0.000000 -0.000000  0.000011  0.190686  0.093236
  4C   1px       -0.201501  0.085211  0.204836  0.092166 -0.000002 -0.000008
  4C   1py        0.085214  0.201499 -0.092169  0.204835 -0.000007 -0.000013
  4C   2pz       -0.000003 -0.000003 -0.000001  0.000000  0.236058  0.351285
  4C   2px        0.671088  0.349381 -0.692747  0.331432 -0.000004  0.000006
  4C   2py        0.349362 -0.671112 -0.331414 -0.692767  0.000021  0.000023
  4C   1dz2      -0.000001 -0.000027  0.000001 -0.000028  0.024651 -0.288161
  4C   1dxz       0.006089 -0.000179  0.006879  0.000250  0.000005  0.000004
  4C   1dyz      -0.000179 -0.006088 -0.000250  0.006878 -0.000014 -0.000008
  4C   1dx2y2    -0.013444 -0.286233  0.013794 -0.280242  0.000007 -0.000001
  4C   1dxy       0.286224 -0.013454 -0.280234 -0.013804  0.000000  0.000001
  5H   1s        -0.263789  0.067961  0.292487  0.096603 -0.006244 -0.038053
  5H   2s        -0.317179  0.104642  0.257684  0.073396 -0.025416  0.043059
  5H   1pz        0.005652 -0.003691  0.006632  0.004279 -0.458088 -0.402286
  5H   1px       -0.339071 -0.123974  0.341174 -0.123800  0.006848 -0.108319
  5H   1py        0.137485  0.463530 -0.139639  0.466912  0.002308 -0.056521
  6H   1s         0.190766  0.194443 -0.229921  0.204977 -0.006245 -0.038050
  6H   2s         0.249124  0.222386 -0.192332  0.186476 -0.025411  0.043073
  6H   1pz       -0.006028 -0.003043 -0.007031  0.003589 -0.458101 -0.402297
  6H   1px       -0.319208  0.126044  0.321414  0.128260 -0.005435  0.103096
  6H   1py       -0.112488  0.483399  0.112372  0.486676  0.004756 -0.065567
  7H   1s         0.073018 -0.262443 -0.062561 -0.301622 -0.006233 -0.038043
  7H   2s         0.067971 -0.326970 -0.065279 -0.259827 -0.025405  0.043077
  7H   1pz        0.000374  0.006741  0.000398 -0.007906 -0.458112 -0.402299
  7H   1px       -0.545650  0.018256  0.549569  0.019361 -0.001414  0.005220
  7H   1py       -0.004709  0.256993  0.003484  0.258562 -0.007096  0.122063
                     42        43        44        45        46        47   
                   1.82710   1.84862   2.22042   2.22042   2.22048   2.22049
                   0.00000   0.00000   0.00000   0.00000   0.00000   0.00000
                  --------  --------  --------  --------  --------  --------
  0C   1s        -0.053250  0.060000  0.000001 -0.000000  0.000000 -0.000001
  0C   2s         0.469387 -0.543645 -0.000007  0.000003  0.000002  0.000003
  0C   3s        -0.450115  0.692009  0.000013 -0.000005 -0.000002 -0.000005
  0C   1pz        0.003088  0.026713  0.000021  0.000024  0.000017 -0.000016
  0C   1px       -0.000020  0.000017  0.011556 -0.009911 -0.010690 -0.008942
  0C   1py       -0.000028  0.000025  0.010667 -0.008902  0.011582  0.009950
  0C   2pz        0.026166  0.281165  0.000021  0.000012 -0.000016  0.000009
  0C   2px        0.000028 -0.000037  0.003876 -0.002562 -0.011383 -0.008917
  0C   2py        0.000060 -0.000053  0.011353 -0.008870  0.003885  0.002588
  0C   1dz2       0.533042 -0.447161  0.000000  0.000000 -0.000003  0.000004
  0C   1dxz       0.000000 -0.000003 -0.709409 -0.709503  0.073140 -0.073147
  0C   1dyz      -0.000002  0.000007 -0.073141 -0.073148 -0.709435  0.709529
  0C   1dx2y2     0.000005 -0.000008  0.000637 -0.000655  0.008622  0.007104
  0C   1dxy      -0.000004  0.000003  0.008601 -0.007072 -0.000637 -0.000656
  1H   1s         0.105981 -0.132721 -0.005543  0.004623  0.002827  0.002062
  1H   2s         0.028419 -0.058496 -0.004043  0.002987  0.012529  0.010565
  1H   1pz       -0.019414 -0.247825  0.447427  0.447488 -0.142120  0.142140
  1H   1px        0.217996 -0.194337  0.010401 -0.008771 -0.011608 -0.009614
  1H   1py       -0.127103  0.109199 -0.011910  0.009660 -0.004682 -0.003630
  2H   1s         0.105966 -0.132719  0.000328 -0.000538 -0.006224 -0.005052
  2H   2s         0.028424 -0.058509 -0.008807  0.007618 -0.009774 -0.007888
  2H   1pz       -0.019410 -0.247828 -0.100661 -0.100674  0.458553 -0.458611
  2H   1px        0.001036  0.002634 -0.011076  0.008840 -0.000490 -0.000510
  2H   1py        0.252331 -0.222894 -0.000818  0.000598  0.016844  0.014065
  3H   1s         0.105993 -0.132735  0.005212 -0.004084  0.003396  0.002993
  3H   2s         0.028468 -0.058559  0.012845 -0.010603 -0.002756 -0.002676
  3H   1pz       -0.019414 -0.247818 -0.346840 -0.346884 -0.316444  0.316489
  3H   1px       -0.219041  0.191713  0.009271 -0.007814  0.012593  0.010262
  3H   1py       -0.125294  0.113747  0.012236 -0.010124 -0.003549 -0.002668
  4C   1s        -0.053250 -0.060000 -0.000001 -0.000000 -0.000000 -0.000001
  4C   2s         0.469387  0.543645  0.000007  0.000003 -0.000002  0.000003
  4C   3s        -0.450115 -0.692009 -0.000013 -0.000005  0.000002 -0.000005
  4C   1pz       -0.003088  0.026713  0.000021 -0.000024  0.000017  0.000016
  4C   1px        0.000020  0.000017  0.011556  0.009911 -0.010690  0.008942
  4C   1py        0.000028  0.000025  0.010667  0.008902  0.011582 -0.009950
  4C   2pz       -0.026166  0.281165  0.000021 -0.000012 -0.000016 -0.000009
  4C   2px       -0.000028 -0.000037  0.003876  0.002562 -0.011383  0.008917
  4C   2py       -0.000060 -0.000053  0.011353  0.008870  0.003885 -0.002588
  4C   1dz2       0.533042  0.447161 -0.000000  0.000000  0.000003  0.000004
  4C   1dxz       0.000000  0.000003  0.709409 -0.709503 -0.073140 -0.073147
  4C   1dyz      -0.000002 -0.000007  0.073141 -0.073148  0.709435  0.709529
  4C   1dx2y2     0.000005  0.000008 -0.000637 -0.000655 -0.008622  0.007104
  4C   1dxy      -0.000004 -0.000003 -0.008601 -0.007072  0.000637 -0.000656
  5H   1s         0.105993  0.132735 -0.005212 -0.004084 -0.003396  0.002993
  5H   2s         0.028468  0.058559 -0.012845 -0.010603  0.002756 -0.002676
  5H   1pz        0.019414 -0.247818 -0.346840  0.346884 -0.316444 -0.316489
  5H   1px        0.219041  0.191713  0.009271  0.007814  0.012593 -0.010262
  5H   1py        0.125294  0.113747  0.012236  0.010124 -0.003549  0.002668
  6H   1s         0.105981  0.132721  0.005543  0.004623 -0.002827  0.002062
  6H   2s         0.028419  0.058496  0.004043  0.002987 -0.012529  0.010565
  6H   1pz        0.019414 -0.247825  0.447427 -0.447488 -0.142120 -0.142140
  6H   1px       -0.217996 -0.194337  0.010401  0.008771 -0.011608  0.009614
  6H   1py        0.127103  0.109199 -0.011910 -0.009660 -0.004682  0.003630
  7H   1s         0.105966  0.132719 -0.000328 -0.000538  0.006224 -0.005052
  7H   2s         0.028424  0.058509  0.008807  0.007618  0.009774 -0.007888
  7H   1pz        0.019410 -0.247828 -0.100661  0.100674  0.458553  0.458611
  7H   1px       -0.001036  0.002634 -0.011076 -0.008840 -0.000490  0.000510
  7H   1py       -0.252331 -0.222894 -0.000818 -0.000598  0.016844 -0.014065
                     48        49        50        51        52        53   
                   2.23917   2.23917   2.24026   2.24026   2.84341   2.86295
                   0.00000   0.00000   0.00000   0.00000   0.00000   0.00000
                  --------  --------  --------  --------  --------  --------
  0C   1s         0.000007 -0.000004 -0.000004 -0.000006  0.189313  0.183597
  0C   2s         0.000012 -0.000030 -0.000030 -0.000015 -1.177537 -1.116211
  0C   3s         0.000019  0.000009  0.000012 -0.000007 -0.680231 -0.888981
  0C   1pz       -0.000000  0.000000 -0.000001  0.000001 -0.001182  0.009704
  0C   1px       -0.372561  0.372638  0.363848  0.368239  0.000071  0.000078
  0C   1py        0.372647  0.372560  0.368237 -0.363856  0.000029  0.000022
  0C   2pz        0.000001  0.000000  0.000000 -0.000003  0.011419 -0.040686
  0C   2px       -0.406621  0.217228  0.233750  0.417374  0.000026  0.000037
  0C   2py        0.217150  0.406533  0.417287 -0.233678 -0.000020 -0.000017
  0C   1dz2       0.000006 -0.000008 -0.000008 -0.000006  0.738494  0.741602
  0C   1dxz       0.001881 -0.016949  0.020471  0.002294 -0.000000  0.000001
  0C   1dyz      -0.017027 -0.001874  0.002290 -0.020518 -0.000001 -0.000001
  0C   1dx2y2     0.300000  0.012417  0.010098 -0.304316 -0.000095 -0.000084
  0C   1dxy      -0.012414  0.299968  0.304283  0.010095  0.000001  0.000006
  1H   1s         0.118275 -0.184584 -0.186625 -0.119551  0.551864  0.563262
  1H   2s         0.410082 -0.220458 -0.225540 -0.411836  0.204705  0.259167
  1H   1pz       -0.003159  0.010134 -0.012490 -0.003953 -0.004212  0.013207
  1H   1px       -0.404177  0.344518  0.337754  0.401929 -0.623701 -0.627043
  1H   1py       -0.183840 -0.425011 -0.427189  0.188487  0.078969  0.078968
  2H   1s        -0.219018 -0.010109 -0.010196  0.221424  0.551907  0.563323
  2H   2s        -0.395932 -0.244903 -0.243876  0.401207  0.204747  0.259217
  2H   1pz        0.010398 -0.002345  0.002829  0.012821 -0.004212  0.013208
  2H   1px       -0.011065 -0.410822 -0.415967  0.007953  0.243448  0.245125
  2H   1py        0.571479 -0.031920 -0.033235 -0.565212 -0.579604 -0.582512
  3H   1s         0.100704  0.194730  0.196857 -0.101833  0.551922  0.563331
  3H   2s        -0.014157  0.465350  0.469402  0.010623  0.204726  0.259199
  3H   1pz       -0.007240 -0.007790  0.009663 -0.008864 -0.004212  0.013207
  3H   1px        0.446541  0.307289  0.302081 -0.447820  0.380222  0.381898
  3H   1py       -0.146641  0.425674  0.422526  0.152846  0.500680  0.503575
  4C   1s         0.000007 -0.000004  0.000004  0.000006  0.189313 -0.183597
  4C   2s         0.000012 -0.000030  0.000030  0.000015 -1.177537  1.116211
  4C   3s         0.000019  0.000009 -0.000012  0.000007 -0.680231  0.888981
  4C   1pz        0.000000 -0.000000 -0.000001  0.000001  0.001182  0.009704
  4C   1px        0.372561 -0.372638  0.363848  0.368239 -0.000071  0.000078
  4C   1py       -0.372647 -0.372560  0.368237 -0.363856 -0.000029  0.000022
  4C   2pz       -0.000001 -0.000000  0.000000 -0.000003 -0.011419 -0.040686
  4C   2px        0.406621 -0.217228  0.233750  0.417374 -0.000026  0.000037
  4C   2py       -0.217150 -0.406533  0.417287 -0.233678  0.000020 -0.000017
  4C   1dz2       0.000006 -0.000008  0.000008  0.000006  0.738494 -0.741602
  4C   1dxz       0.001881 -0.016949 -0.020471 -0.002294 -0.000000 -0.000001
  4C   1dyz      -0.017027 -0.001874 -0.002290  0.020518 -0.000001  0.000001
  4C   1dx2y2     0.300000  0.012417 -0.010098  0.304316 -0.000095  0.000084
  4C   1dxy      -0.012414  0.299968 -0.304283 -0.010095  0.000001 -0.000006
  5H   1s         0.100704  0.194730 -0.196857  0.101833  0.551922 -0.563331
  5H   2s        -0.014157  0.465350 -0.469402 -0.010623  0.204726 -0.259199
  5H   1pz        0.007240  0.007790  0.009663 -0.008864  0.004212  0.013207
  5H   1px       -0.446541 -0.307289  0.302081 -0.447820 -0.380222  0.381898
  5H   1py        0.146641 -0.425674  0.422526  0.152846 -0.500680  0.503575
  6H   1s         0.118275 -0.184584  0.186625  0.119551  0.551864 -0.563262
  6H   2s         0.410082 -0.220458  0.225540  0.411836  0.204705 -0.259167
  6H   1pz        0.003159 -0.010134 -0.012490 -0.003953  0.004212  0.013207
  6H   1px        0.404177 -0.344518  0.337754  0.401929  0.623701 -0.627043
  6H   1py        0.183840  0.425011 -0.427189  0.188487 -0.078969  0.078968
  7H   1s        -0.219018 -0.010109  0.010196 -0.221424  0.551907 -0.563323
  7H   2s        -0.395932 -0.244903  0.243876 -0.401207  0.204747 -0.259217
  7H   1pz       -0.010398  0.002345  0.002829  0.012821  0.004212  0.013208
  7H   1px        0.011065  0.410822 -0.415967  0.007953 -0.243448  0.245125
  7H   1py       -0.571479  0.031920 -0.033235 -0.565212  0.579604 -0.582512
                     54        55        56        57   
                   2.91629   2.91631   2.91981   2.91983
                   0.00000   0.00000   0.00000   0.00000
                  --------  --------  --------  --------
  0C   1s         0.000027  0.000008 -0.000025  0.000008
  0C   2s        -0.000232 -0.000120  0.000222 -0.000124
  0C   3s        -0.000008  0.000027 -0.000015  0.000035
  0C   1pz        0.000001  0.000000  0.000001 -0.000001
  0C   1px        0.529542  0.483598 -0.531969  0.486389
  0C   1py       -0.483671  0.529643  0.486464  0.532071
  0C   2pz       -0.000003 -0.000001 -0.000004  0.000003
  0C   2px        0.439688  0.012375 -0.451318  0.022874
  0C   2py       -0.012355  0.439724  0.022854  0.451355
  0C   1dz2       0.000066  0.000024 -0.000055  0.000024
  0C   1dxz      -0.000024 -0.000050 -0.000065  0.000171
  0C   1dyz       0.000050 -0.000024  0.000171  0.000065
  0C   1dx2y2     0.883460  0.369690 -0.880018  0.373204
  0C   1dxy       0.369710 -0.883516 -0.373224 -0.880076
  1H   1s        -0.642823 -0.361197  0.635330 -0.365696
  1H   2s        -0.254590 -0.018496  0.284471 -0.025781
  1H   1pz        0.000813  0.000537  0.000735 -0.000566
  1H   1px        0.548907  0.449106 -0.554113  0.454320
  1H   1py       -0.135945  0.111552  0.134969  0.108705
  2H   1s         0.634429 -0.376217 -0.634564 -0.367470
  2H   2s         0.143311 -0.211269 -0.164554 -0.233508
  2H   1pz       -0.000871  0.000435 -0.000856 -0.000353
  2H   1px        0.356615  0.024820 -0.358457  0.021907
  2H   1py       -0.560313  0.304023  0.567457  0.304528
  3H   1s         0.008636  0.737534 -0.000980  0.733284
  3H   2s         0.111305  0.229748 -0.119929  0.259268
  3H   1pz        0.000059 -0.000972  0.000124  0.000918
  3H   1px        0.085336  0.403720 -0.081813  0.407774
  3H   1py       -0.181441  0.575281  0.181631  0.581149
  4C   1s         0.000027  0.000008  0.000025 -0.000008
  4C   2s        -0.000232 -0.000120 -0.000222  0.000124
  4C   3s        -0.000008  0.000027  0.000015 -0.000035
  4C   1pz       -0.000001 -0.000000  0.000001 -0.000001
  4C   1px       -0.529542 -0.483598 -0.531969  0.486389
  4C   1py        0.483671 -0.529643  0.486464  0.532071
  4C   2pz        0.000003  0.000001 -0.000004  0.000003
  4C   2px       -0.439688 -0.012375 -0.451318  0.022874
  4C   2py        0.012355 -0.439724  0.022854  0.451355
  4C   1dz2       0.000066  0.000024  0.000055 -0.000024
  4C   1dxz      -0.000024 -0.000050  0.000065 -0.000171
  4C   1dyz       0.000050 -0.000024 -0.000171 -0.000065
  4C   1dx2y2     0.883460  0.369690  0.880018 -0.373204
  4C   1dxy       0.369710 -0.883516  0.373224  0.880076
  5H   1s         0.008636  0.737534  0.000980 -0.733284
  5H   2s         0.111305  0.229748  0.119929 -0.259268
  5H   1pz       -0.000059  0.000972  0.000124  0.000918
  5H   1px       -0.085336 -0.403720 -0.081813  0.407774
  5H   1py        0.181441 -0.575281  0.181631  0.581149
  6H   1s        -0.642823 -0.361197 -0.635330  0.365696
  6H   2s        -0.254590 -0.018496 -0.284471  0.025781
  6H   1pz       -0.000813 -0.000537  0.000735 -0.000566
  6H   1px       -0.548907 -0.449106 -0.554113  0.454320
  6H   1py        0.135945 -0.111552  0.134969  0.108705
  7H   1s         0.634429 -0.376217  0.634564  0.367470
  7H   2s         0.143311 -0.211269  0.164554  0.233508
  7H   1pz        0.000871 -0.000435 -0.000856 -0.000353
  7H   1px       -0.356615 -0.024820 -0.358457  0.021907
  7H   1py        0.560313 -0.304023  0.567457  0.304528
             **** ENERGY FILE WAS UPDATED (d3d.en.tmp) ****
Finished Guess after   0.0 sec
Maximum memory used throughout the entire GUESS-calculation: 4.2 MB
-------------------------------------------------------------------------------
                              ORCA-CASSCF
-------------------------------------------------------------------------------

Building the CAS space              ... done (1 configurations for Mult=3)
Building the CAS space              ... done (3 configurations for Mult=1)
Memory for address arrays  		      ... done
Make address arrays			      ... done
Memory for buffers 			      ... done
Setting up spin-function prototypes	      ... (MAXOPEN=2) 2 4 done
Trivial cases - DOMO's			      ... done (  0.0 MB)
Number of open shells			    ...  2
domo->virtual excitations			... done (  0.0 MB)
domo->somo excitations				... done (  0.0 MB)
somo->virtual excitations			... done (  0.0 MB)
somo->somo excitations				... done (  0.0 MB)
Coupling container construction done
Memory for address arrays  		      ... done
Make address arrays			      ... done
Memory for buffers 			      ... done
Setting up spin-function prototypes	      ... (MAXOPEN=2) 0 2 4 done
Trivial cases - DOMO's			      ... done (  0.0 MB)
Number of open shells			    ...  0
domo->virtual excitations			... done (  0.0 MB)
domo->somo excitations				... done (  0.0 MB)
somo->virtual excitations			... done (  0.0 MB)
somo->somo excitations				... done (  0.0 MB)
Number of open shells			    ...  2
domo->virtual excitations			... done (  0.0 MB)
domo->somo excitations				... done (  0.0 MB)
somo->virtual excitations			... done (  0.0 MB)
somo->somo excitations				... done (  0.0 MB)
Coupling container construction done

 CASSCF (estimated) memory needed     ... 0.3 MB
 CASPT2 (estimated) memory needed     ... 0.9 MB 


SYSTEM-SPECIFIC SETTINGS:
Number of active electrons          ...    2
Number of active orbitals           ...    2
Total number of electrons           ...   18
Total number of orbitals            ...   58

Determined orbital ranges:
   Internal       0 -    7 (   8 orbitals)
   Active         8 -    9 (   2 orbitals)
   External      10 -   57 (  48 orbitals)
Number of rotation parameters      ...    496

CI-STEP:
CI strategy                         ... General CI
Number of multiplicity blocks       ...    2
BLOCK  0 WEIGHT=   0.5000
  Multiplicity                      ...    3
  #(Configurations)                 ...    1
  #(CSFs)                           ...    1
  #(Roots)                          ...    1
    ROOT=0 WEIGHT=    0.500000

BLOCK  1 WEIGHT=   0.5000
  Multiplicity                      ...    1
  #(Configurations)                 ...    3
  #(CSFs)                           ...    3
  #(Roots)                          ...    1
    ROOT=0 WEIGHT=    0.500000

  PrintLevel                        ...    1
  N(GuessMat)                       ...      2048
  MaxDim(CI)                        ...        10
  MaxIter(CI)                       ...        64
  Energy Tolerance CI               ...  2.50e-09
  Residual Tolerance CI             ...  2.50e-09
  Shift(CI)                         ...  1.00e-04

INTEGRAL-TRANSFORMATION-STEP:
  Algorithm                         ... EXACT

ORBITAL-IMPROVEMENT-STEP:
  Algorithm                         ... SuperCI(PT)
  Default Parametrization           ... CAYLEY
  Act-Act rotations                 ... depends on algorithm used

  Note: SuperCI(PT) will ignore FreezeIE, FreezeAct and FreezeGrad. In general Default settings are encouraged.
        In conjunction with ShiftUp, ShiftDn or GradScaling the performance of SuperCI(PT) is less optimal.  

  MaxRot                            ... 2.00e-01 
  Max. no of vectors (DIIS)         ... 15
  DThresh (cut-off) metric          ... 1.00e-06
  Switch step at gradient           ...  3.00e-02 
  Switch step at iteration          ...        50   
  Switch step to                    ... SuperCI(PT)    

SCF-SETTINGS:
  Incremental                       ... on
  RIJCOSX approximation             ... off
  RI-JK approximation               ... off
  AO integral handling              ... DIRECT
  Integral Neglect Thresh           ...  2.50e-11
  Primitive cutoff TCut             ...  2.50e-12
  Energy convergence tolerance      ...  2.50e-08
  Orbital gradient convergence      ...  2.50e-04
  Max. number of iterations         ...        75  

PT2-SETTINGS:
  A PT2 calculation will be performed on top of the CASSCF wave function (PT2 = CASPT2)   
  CASPT2 Real Levelshift            ...  0.00e+00
  CASPT2 Im.  Levelshift            ...  0.00e+00
  CASPT2 IPEA Levelshift            ...  0.00e+00
 CI step strategy                   ... General CI
  D4C handling                      ... PS approximation (factorized) 
  CI truncation for D4C at          ...  1.00e-12
  CI truncation for D3  at          ...  1.00e-14
  Orbitals                          ... canonical for each state 
  Last  frozen  orbital             ... 1
  First deleted orbital             ... 58

FINAL ORBITALS:
  Active   Orbitals                 ... natural 
  Internal Orbitals                 ... canonical 
  External Orbitals                 ... canonical 

------------------
CAS-SCF ITERATIONS
------------------


MACRO-ITERATION   1: 
   --- Inactive Energy E0 = -78.04490737 Eh
CI-ITERATION   0: 
   -78.914194726   0.000000000000 (    0.00)
   CI-PROBLEM SOLVED
   DENSITIES MADE
CI-ITERATION   0: 
   -78.919165243   0.000000000000 (    0.00)
   CI-PROBLEM SOLVED
   DENSITIES MADE

                 <<<<<<<<<<<<<<<<<<INITIAL CI STATE CHECK>>>>>>>>>>>>>>>>>>

BLOCK  0 MULT= 3 NROOTS= 1 
ROOT   0:  E=     -78.9141947256 Eh
      1.00000 [     0]: 11

BLOCK  1 MULT= 1 NROOTS= 1 
ROOT   0:  E=     -78.9191652432 Eh
      0.62698 [     0]: 20
      0.37302 [     2]: 02

                 <<<<<<<<<<<<<<<<<<INITIAL CI STATE CHECK>>>>>>>>>>>>>>>>>>

   E(CAS)=   -78.916679984 Eh DE=    0.000000e+00
   --- Energy gap subspaces: Ext-Act = 0.239   Act-Int = 0.422
   N(occ)=  1.12698 0.87302
   ||g|| =     1.276409e+00 Max(G)=   -3.806463e-01 Rot=25,6
   --- Orbital Update [SuperCI(PT)]
   --- Canonicalize Internal Space
   --- Canonicalize External Space
   --- SX_PT (Skipped TA=0 IT=0): ||X|| =      0.185672465 Max(X)(25,6) =      0.065556329 
   --- SFit(Active Orbitals)

MACRO-ITERATION   2: 
   --- Inactive Energy E0 = -78.11831447 Eh
CI-ITERATION   0: 
   -79.042954347   0.000000000000 (    0.00)
   CI-PROBLEM SOLVED
   DENSITIES MADE
CI-ITERATION   0: 
   -79.047401919   0.000000000000 (    0.00)
   CI-PROBLEM SOLVED
   DENSITIES MADE
   E(CAS)=   -79.045178133 Eh DE=   -1.284981e-01
   --- Energy gap subspaces: Ext-Act = 0.269   Act-Int = 0.427
   N(occ)=  1.12422 0.87578
   ||g|| =     3.237978e-01 Max(G)=    1.085228e-01 Rot=26,7
   --- Orbital Update [SuperCI(PT)]
   --- Canonicalize Internal Space
   --- Canonicalize External Space
   --- SX_PT (Skipped TA=0 IT=0): ||X|| =      0.059953188 Max(X)(15,7) =      0.019747304 
   --- SFit(Active Orbitals)

MACRO-ITERATION   3: 
   --- Inactive Energy E0 = -78.15618268 Eh
CI-ITERATION   0: 
   -79.054715135   0.000000000000 (    0.00)
   CI-PROBLEM SOLVED
   DENSITIES MADE
CI-ITERATION   0: 
   -79.059351352   0.000000000000 (    0.00)
   CI-PROBLEM SOLVED
   DENSITIES MADE
   E(CAS)=   -79.057033243 Eh DE=   -1.185511e-02
   --- Energy gap subspaces: Ext-Act = 0.257   Act-Int = 0.433
   N(occ)=  1.12405 0.87595
   ||g|| =     8.383655e-02 Max(G)=    2.351622e-02 Rot=14,7
   --- Orbital Update [SuperCI(PT)]
   --- Canonicalize Internal Space
   --- Canonicalize External Space
   --- SX_PT (Skipped TA=0 IT=0): ||X|| =      0.017581373 Max(X)(15,7) =      0.004847668 
   --- SFit(Active Orbitals)

MACRO-ITERATION   4: 
   --- Inactive Energy E0 = -78.14795503 Eh
CI-ITERATION   0: 
   -79.055520293   0.000000000000 (    0.00)
   CI-PROBLEM SOLVED
   DENSITIES MADE
CI-ITERATION   0: 
   -79.060087240   0.000000000000 (    0.00)
[...]
 --------------------
   --- Canonicalize Internal Space
   --- Canonicalize External Space

     D1, D2 Build      ... done in        0.0 sec
     D3 Build          ... CI space truncated: 3 -> 2 CFGs 
                       ... RI space truncated: 3 -> 3 CFGs 
                       ... 
                       ... correcting norm (1.000000e+00) 
                       ... done in        0.0 sec
     Hole densities    ... done in        0.0 sec
     Calc Fock         ... done in        0.0 sec
 CASPT2 intermediates avoiding 4-th order density matrix   ...

     Class VIJAB       ... done in        0.0 sec
     Class ITAB        ... Skipped =         0 of        27648 LowestEV= 7.962761e-02 ... done in        0.0 sec 
     Class TUAB        ...  ERROR! All eigenvalues are <= 0 !!
Skipped =      6912 of         9216 LowestEV= 2.257785e-01 ... done in        0.0 sec 
     Class IJTA        ... Skipped =         0 of         3456 LowestEV=-1.242020e-01 ... done in        0.0 sec 
     Class IJTU        ...  ERROR! All eigenvalues are <= 0 !!
Skipped =        63 of           84 LowestEV= 0.000000e+00 ... done in        0.0 sec 
     Class ITUA/ITAU   ... Skipped =      1152 of         2304 LowestEV=-6.652332e-02 ... done in        0.0 sec 
     Class TUVA        ... CI space truncated: 3 -> 2 CFGs 
                       ... RI space truncated: 3 -> 3 CFGs 
                       ... 
                       ... correcting norm (1.000000e+00) 
                       ... Skipped =       288 of          384 LowestEV= 7.962761e-02 ... done in        0.0 sec 
     Class ITUV        ... CI space truncated: 3 -> 2 CFGs 
                       ... RI space truncated: 3 -> 3 CFGs 
                       ... 
                       ... correcting norm (1.000000e+00) 
                       ... Skipped =         6 of           48 LowestEV=-1.242020e-01 ... done in        0.0 sec 

-----------------------------------
 CASPT2-D Energy =     -0.269988713
-----------------------------------

Class V0_ijab: dE=     -0.185339059
Class Vm1_iab: dE=     -0.058400918
Class Vm2_ab : dE=     -0.000257173
Class V1_ija : dE=     -0.009922121
Class V2_ij  : dE=     -0.000129305
Class V0_ia  : dE=     -0.015873939
Class Vm1_a  : dE=     -0.000051448
Class V1_i   : dE=     -0.000014750


smallest energy denominator IJAB =      1.511922376
smallest energy denominator ITAB =      1.023851321
smallest energy denominator IJTA =      1.199457853
smallest energy denominator TUAB =      0.602303586
smallest energy denominator IJTU =      0.953516648
smallest energy denominator ITAU =      0.689437869
smallest energy denominator TUVA =      0.267890134
smallest energy denominator ITUV =      0.443496665

 Iter           EPT2     EHylleraas  residual norm    Time
    1    -0.26998871    -0.26973731     0.01319531     0.0
    2    -0.26973731    -0.26983655     0.00084396     0.0
    3    -0.26983599    -0.26983699     0.00005715     0.0
    4    -0.26983690    -0.26983699     0.00000300     0.0
    5    -0.26983699    -0.26983699     0.00000023     0.0

 CASPT2 calculation converged in 5 iterations 


 Reference Weight =      0.914128385

 ===============================================================
                       CASPT2 Results  
 ===============================================================
   *********************
    MULT 3, ROOT 0 
   *********************

  Class V0_ijab :	 dE = -0.185306491961 
  Class Vm1_iab :	 dE = -0.059693531943 
  Class Vm2_ab  :	 dE = -0.000110809268 
  Class V1_ija  :	 dE = -0.009843865210 
  Class V2_ij   :	 dE = -0.000012803617 
  Class V0_ia   :	 dE = -0.014187581428 
  Class Vm1_a   :	 dE = -0.000052543857 
  Class V1_i    :	 dE = -0.000016973714 

 --------------------------------------------------------------- 
 	 Total Energy Correction : dE = -0.26922460099735
 --------------------------------------------------------------- 
 	 Reference  Energy       : E0 = -79.05554214789601
 	 Reference Weight        : W0 = 0.91495777841700
 --------------------------------------------------------------- 
 	 Total Energy (E0+dE)    : E  = -79.32476674889335
 --------------------------------------------------------------- 

   *********************
    MULT 1, ROOT 0 
   *********************

  Class V0_ijab :	 dE = -0.185305915809 
  Class Vm1_iab :	 dE = -0.058361681494 
  Class Vm2_ab  :	 dE = -0.000255168983 
  Class V1_ija  :	 dE = -0.009893092562 
  Class V2_ij   :	 dE = -0.000131033771 
  Class V0_ia   :	 dE = -0.015822745225 
  Class Vm1_a   :	 dE = -0.000049469900 
  Class V1_i    :	 dE = -0.000017882101 

 --------------------------------------------------------------- 
 	 Total Energy Correction : dE = -0.26983698984577
 --------------------------------------------------------------- 
 	 Reference  Energy       : E0 = -79.06011134434321
 	 Reference Weight        : W0 = 0.91412838478135
 --------------------------------------------------------------- 
 	 Total Energy (E0+dE)    : E  = -79.32994833418898
 --------------------------------------------------------------- 

-----------------------
 CASPT2 TOTAL ENERGIES
-----------------------
# This can be used as input for the MRCI SOC block to replace
# the diagonal energies within the QDPT treatment. 
# Note that multiplicty blocks must be ordered in decending order e.g. mult 5,3,1! 

STATE   ROOT MULT  Energy/a.u.   MRCI SOC BLOCK INPUT (Eh)
   0:    0    3  -79.324767    EDIAG[0]    -79.324766749
   1:    0    1  -79.329948    EDIAG[1]    -79.329948334

-----------------------------
 CASPT2 TRANSITION ENERGIES
------------------------------

LOWEST ROOT (ROOT 0, MULT 1) =    -79.329948334 Eh -2158.678 eV

STATE ROOT MULT  DE/a.u.     DE/eV    DE/cm**-1
   1:   0    3   0.005182     0.141   1137.2

--------------------------------------------
 CASPT2 CORRECTION TO THE TRANSITION ENERGY
--------------------------------------------
STATE  ROOT MULT DE/a.u. DE/eV 	DE/cm**-1
   1:    0    3   0.000612      0.017    134.4


--------------
TIMINGS CASPT2
--------------

Sum of individual times        ...        1.1 sec (100.0%)

   Integraltransformation      ...        0.7 sec ( 67.0%)
   Building Fock and alike     ...        0.1 sec (  7.8%)
   Building D2,D1              ...        0.0 sec (  0.0%)
   Building D3                 ...        0.0 sec (  0.0%)
   Building D4                 ...        0.0 sec (  0.0%)
   All densities               ...        0.0 sec (  0.2%)
   Hole Densities              ...        0.0 sec (  0.0%)
   Re-Canonicalization         ...        0.1 sec (  9.7%)
   Iterations                  ...        0.2 sec ( 14.9%)
   Classes Vijab               ...        0.0 sec (  0.0%)
   Class Viab                  ...        0.0 sec (  0.2%)
   Class Vab                   ...        0.0 sec (  0.1%)
   Class Vija                  ...        0.0 sec (  0.1%)
   Class Vij                   ...        0.0 sec (  0.1%)
   Class Via                   ...        0.0 sec (  0.0%)
   Class Va                    ...        0.0 sec (  0.1%)
   Class Vi                    ...        0.0 sec (  0.0%)
   All Classes                 ...        0.2 sec ( 15.4%)

-------------------------------------------------------------
 Forming the transition densities       ... done in 0.0 sec
-------------------------------------------------------------

--------------
CASSCF TIMINGS
--------------

Total time                       ...        2.4 sec
Sum of individual times          ...        2.4 sec ( 97.3%)

Calculation of AO operators
   F(Core) operator              ...        0.3 sec ( 12.0%)
   G(Act) operator               ...        0.3 sec ( 10.5%)
Calculation of MO transformed quantities
   J(MO) operators               ...        0.7 sec ( 28.2%)
   AO->MO one electron integrals ...        0.0 sec (  0.0%)
Configuration interaction steps
   CI-setup phase                ...        0.0 sec (  0.2%)
   CI-solution phase             ...        0.0 sec (  0.5%)
   Generation of densities       ...        0.0 sec (  0.0%)
Orbital improvement steps
   Orbital gradient              ...        0.0 sec (  0.0%)
   O(1) converger                ...        0.0 sec (  0.1%)
CPCM steps
   Total CPCM time               ...        0.0 sec (  0.0%)
PT2 
   CASPT2 time                   ...        1.1 sec ( 45.8%)
Properties                       ...        0.0 sec (  0.0%)
   SOC integral calculation      ...        0.0 sec (  0.0%)
   SSC RMEs (incl. integrals)    ...        0.0 sec (  0.0%)
   SOC RMEs                      ...        0.0 sec (  0.0%)

Maximum memory used throughout the entire CASSCF-calculation: 39.5 MB

------------------------------------------------------------------------------
                         ORCA PROPERTY INTEGRAL CALCULATIONS
------------------------------------------------------------------------------

GBWName                                   ... d3d.gbw
Number of atoms                           ...      8
Number of basis functions                 ...     58
Max core memory                           ...   4096 MB

Dipole integrals                          ... YES
Quadrupole integrals                      ...  NO
Linear momentum integrals                 ...  NO
Angular momentum integrals                ... YES
Higher moments length integrals           ...  NO
Higher moments velocity integrals         ...  NO
Kinetic energy integrals                  ...  NO
GIAO right hand sides                     ...  NO
GIAO dipole derivative integrals          ...  NO
SOC integrals                             ...  NO
EPR diamagnetic integrals (GIAO)          ...  NO
EPR gauge integrals                       ...  NO
Field gradient integrals                  ...  NO (   0 nuclei)
Spin-dipole/Fermi contact integrals       ...  NO (   0 nuclei)
Contact density integrals                 ...  NO (   0 nuclei)
Nucleus-orbit integrals                   ...  NO (   0 nuclei)
Geometric perturbations                   ...  NO (   8 nuclei)

Choice of electric origin   ... Center of mass
Position of electric origin ... ( -0.0000, -0.0000,  0.0000) 
Choice of magnetic origin   ... GIAO
Position of magnetic origin ... (  0.0000,  0.0000,  0.0000) 

Calculating integrals                     ... Electric Dipole (Length)     done (  0.0 sec)
Calculating integrals                     ... Angular Momentum  (ElOri)    done (  0.0 sec)

Property integrals calculated in   0.0 sec

Maximum memory used throughout the entire PROPINT-calculation: 4.3 MB
-------------------------------------------------------------------------------
                              ORCA-CASSCF
-------------------------------------------------------------------------------

Setting up the integral package     ... SharkInputFile = d3d.SHARKINP.tmpdone

PROPERTIES-SETTINGS:
  QDPT diagonal energies            ... CASPT2 energies 


==========================================
CASSCF UV, CD spectra and dipole moments
==========================================


=====================================================================
CASSCF (CASPT2 diagonal energies) UV, CD spectra and dipole moments
=====================================================================

--------------
CASSCF TIMINGS
--------------

Total time                       ...        0.0 sec
Sum of individual times          ...        0.0 sec ( 91.9%)

Calculation of AO operators
Calculation of MO transformed quantities
Configuration interaction steps
   CI-setup phase                ...        0.0 sec ( 91.9%)
Orbital improvement steps

Maximum memory used throughout the entire CASSCF-calculation: 26.1 MB

-------------------------   --------------------
FINAL SINGLE POINT ENERGY       -79.327357541541
-------------------------   --------------------


------------------------------------------------------------------------------
                              ORCA PROPERTY CALCULATIONS
------------------------------------------------------------------------------

GBWName                                 ... d3d.gbw
Number of atoms                         ...      8
Number of basis functions               ...     58
Max core memory                         ...   4096 MB

Electric properties:
Dipole moment                           ... YES
Quadrupole moment                       ...  NO
Static polarizability (Dipole/Dipole)   ...  NO
Static polarizability (Dipole/Quad.)    ...  NO
Static polarizability (Quad./Quad.)     ...  NO
Static polarizability (Velocity)        ...  NO
Static hyperpolarizability              ...  NO

Atomic electric properties:
Dipole moment                           ...  NO
Quadrupole moment                       ...  NO
Static polarizability                   ...  NO

Choice of electric origin               ... Center of mass
Position of electric origin             ...    -0.000000    -0.000000     0.000000

General magnetic properties:
Magnetizability                         ...  NO

EPR properties:
g-Tensor (aka g-matrix)                 ...  NO
Zero-Field splitting spin-orbit         ...  NO
Zero-field splitting spin-spin          ...  NO
Hyperfine couplings                     ...  NO (   0 nuclei)
Quadrupole couplings                    ...  NO (   0 nuclei)
Contact density                         ...  NO (   0 nuclei)

NMR properties:
Chemical shifts                         ...  NO (   0 nuclei)
Spin-rotation constants                 ...  NO (   0 nuclei)
Spin-spin couplings                     ...  NO (   0 nuclei,    0 pairs)

Choice of magnetic origin               ... GIAO
Position of magnetic origin             ...     0.000000     0.000000     0.000000

Properties with geometric perturbations:
SCF Hessian                             ...  NO
IR spectrum                             ...  NO
VCD spectrum                            ...  NO
X-ray spectroscopy properties:
SCF XES/XAS/RIXS spectra                ...  NO

SCF SOC stabilization energy            ...  NO
Diagonal Born-Oppenheimer correction    ...  NO

-------------
DIPOLE MOMENT
-------------

Method             : CASSCF/ALL STATES AVERAGE
Type of density    : Electron Density
Level              : Unrelaxed density
State              :  -1
Multiplicity       :  -1
Irrep              :   0
Energy             :   -79.0578267461196162 Eh
Basis              : AO
                                X                 Y                 Z
Electronic contribution:      0.000000000      -0.000000000      -0.000000000
Nuclear contribution   :      0.000000000       0.000000000       0.000000000
                        -----------------------------------------
Total Dipole Moment    :      0.000000000      -0.000000000      -0.000000000
                        -----------------------------------------
Magnitude (a.u.)       :      0.000000000
Magnitude (Debye)      :      0.000000000



--------------------
Rotational spectrum 
--------------------
 
Rotational constants in cm-1:             2.378825             0.176275             0.176274 
Rotational constants in MHz :         71315.383142          5284.602327          5284.572042 

Dipole components along the rotational axes: 
x,y,z [a.u.] :    -0.000000    -0.000000     0.000000 
x,y,z [Debye]:    -0.000000    -0.000000     0.000000 

 

Dipole moment calculation done in   0.0 sec 

Maximum memory used throughout the entire PROP-calculation: 2.1 MB

--------------------------------
SUGGESTED CITATIONS FOR THIS RUN
--------------------------------

Below you find a list of papers that are relevant to this ORCA run
We neither can nor want to force you to cite these papers, but we appreciate if you do
You receive ORCA, which is the product of decades of hard work by many enthusiastic individuals, for free
The only thing we kindly ask in return is that you cite our papers,
We deeply appreciate it, if you show your appreciation for ORCA by not just citing the generic ORCA reference.

Please note that relegating all ORCA citations to the supporting information does *not* help us.
SI sections are not indexed - citations you put there will not count into any citation statistics
But we need these citations in order to attract the funding resources that allow us to do what we are doing

Therefore, if you are a happy ORCA user, please consider citing a few of the papers listed below in the main body of your paper

In addition to the list printed below, the program has created the file d3d.bibtex that contains the list in bibtex format
You can import this file easily into all common literature databanks and citation aid programs


List of essential papers. We consider these as the minimum necessary citations

  1. Neese, F.
     Software update: the ORCA program system, version 6.0
     WIRES Comput. Molec. Sci. 2025 15(1), e70019
     doi.org/10.1002/wcms.7019

List of papers to cite with high priority. The work reported in these papers was absolutely
necessary for this run to complete.
Our perspective: the developers of density functionals and basis sets usually get cited in chemistry papers
Good! But without the algorithms to do something with them, the functionals or basis sets would not do anything.
Hence, in our opinion, the algorithm design and method developments papers are equally worthy of getting cited

  1. Kollmar, C.; Sivalingam, K.; Helmich-Paris, B.; Angeli, C.; Neese, F.
     A perturbation-based super-CI approach for the orbital optimization of a CASSCF wave function
     J. Comput. Chem. 2019 40 , 1463-1470
     doi.org/10.1002/jcc.25801
  2. Kollmar, C.; Sivalingam, K.; Guo, Y.; Neese, F.
     An efficient implementation of the NEVPT2 and CASPT2 methods avoiding higher-order density matrices
     J. Chem. Phys. 2021 155(23), 234104
     doi.org/10.1063/5.0072129
  3. Neese, F.
     The SHARK Integral Generation and Digestion System
     J. Comp. Chem. 2022 44(3), 381
     doi.org/10.1002/jcc.26942
  4. Ugandi, M.; Roemelt, M.
     A recursive formulation of one-electron coupling coefficients for spin-adapted configuration interaction calculations featuring many unpaired electrons
     Int. J. Quantum Chem. 2023 123 , e27045
     doi.org/10.1002/qua.27045

List of suggested additional citations. These are papers that are important in the 'surrounding' of 
of this run, or papers that preceded the highly important papers. If you like your results we are grateful for a citation.

  1. Neese, F.
     The ORCA program system
     WIRES Comput. Molec. Sci. 2012 2(1), 73-78
     doi.org/10.1002/wcms.81
  2. Neese, F.
     Software update: the ORCA program system, version 4.0
     WIRES Comput. Molec. Sci. 2018 8(1), 1-6
     doi.org/10.1002/wcms.1327
  3. Kollmar, C.; Sivalingam, K.; Neese, F.
     An alternative choice of the zeroth-order Hamiltonian in CASPT2 theory
     J. Chem. Phys. 2020 152(21), 214110
     doi.org/10.1063/5.0010019
  4. Neese, F.; Wennmohs, F.; Becker, U.; Riplinger, C.
     The ORCA quantum chemistry program package
     J. Chem. Phys. 2020 152(22), 224108
     doi.org/10.1063/5.0004608
  5. Neese, F.
     Software update: The ORCA program system—Version 5.0
     WIRES Comput. Molec. Sci. 2022 12(1), e1606
     doi.org/10.1002/wcms.1606

List of optional additional citations

  1. Neese, F.
     Approximate second-order SCF convergence for spin unrestricted wavefunctions
     Chem. Phys. Lett. 2000 325(1-3), 93-98
     doi.org/10.1016/s0009-2614(00)00662-x

Timings for individual modules:

Sum of individual times          ...        2.803 sec (=   0.047 min)
Startup calculation              ...        0.173 sec (=   0.003 min)   6.2 %
SCF iterations                   ...        0.041 sec (=   0.001 min)   1.5 %
CASSCF iterations                ...        2.518 sec (=   0.042 min)  89.8 %
Property integrals               ...        0.035 sec (=   0.001 min)   1.2 %
Property calculations            ...        0.036 sec (=   0.001 min)   1.3 %
                             ****ORCA TERMINATED NORMALLY****
TOTAL RUN TIME: 0 days 0 hours 0 minutes 2 seconds 909 msec
