
                                 *****************
                                 * O   R   C   A *
                                 *****************

                                            #,                                       
                                            ###                                      
                                            ####                                     
                                            #####                                    
                                            ######                                   
                                           ########,                                 
                                     ,,################,,,,,                         
                               ,,#################################,,                 
                          ,,##########################################,,             
                       ,#########################################, ''#####,          
                    ,#############################################,,   '####,        
                  ,##################################################,,,,####,       
                ,###########''''           ''''###############################       
              ,#####''   ,,,,##########,,,,          '''####'''          '####       
            ,##' ,,,,###########################,,,                        '##       
           ' ,,###''''                  '''############,,,                           
         ,,##''                                '''############,,,,        ,,,,,,###''
      ,#''                                            '''#######################'''  
     '                                                          ''''####''''         
             ,#######,   #######,   ,#######,      ##                                
            ,#'     '#,  ##    ##  ,#'     '#,    #''#        ,####,    ,#,          
            ##       ##  ##   ,#'  ##            #'  '#       #'       ,# #          
            ##       ##  #######   ##           ,######,      #####,      #          
            '#,     ,#'  ##    ##  '#,     ,#' ,#      #,     #,   #      #          
             '#######'   ##     ##  '#######'  #'      '#     '####' #    #          



                #########################################################
                #                        -***-                          #
                #          Department of theory and spectroscopy        #
                #                                                       #
                #                      Frank Neese                      #
                #                                                       #
                #     Directorship, Architecture, Infrastructure        #
                #                    SHARK, DRIVERS                     #
                #        Core code/Algorithms in most modules           #
                #                                                       #
                #        Max Planck Institute fuer Kohlenforschung      #
                #                Kaiser Wilhelm Platz 1                 #
                #                 D-45470 Muelheim/Ruhr                 #
                #                      Germany                          #
                #                                                       #
                #                  All rights reserved                  #
                #                        -***-                          #
                #########################################################


                         Program Version 6.1.0  -  RELEASE   -
                                (GIT: $679e74b$)
                          ($2025-06-10 18:02:51 +0200$)


 With contributions from (in alphabetic order):
[Max-Planck-Institut fuer Kohlenforschung]                               
  Daniel Aravena         : Magnetic Suceptibility                        
  Michael Atanasov       : Ab Initio Ligand Field Theory (pilot matlab implementation)
  Alexander A. Auer      : GIAO ZORA, VPT2 properties, NMR spectrum      
  Ute Becker             : All parallelization in ORCA, NUMFREQ, NUMCALC 
  Giovanni Bistoni       : ED, misc. LED, open-shell LED, HFLD           
  Dmytro Bykov           : pre 5.0 version of the SCF Hessian            
  Marcos Casanova-Páez   : Triplet and SCS-CIS(D). UHF-(DLPNO)-IP/EA/STEOM-CCSD. UHF-CVS-IP/STEOM-CCSD   
  Vijay G. Chilkuri      : MRCI spin determinant printing, contributions to CSF-ICE 
  Pauline Colinet        : FMM embedding                                 
  Dipayan Datta          : RHF DLPNO-CCSD density                        
  Achintya Kumar Dutta   : EOM-CC, STEOM-CC                              
  Nicolas Foglia         : Exact transition moments, OPA infrastructure, MCD improvements    
  Dmitry Ganyushin       : Spin-Orbit,Spin-Spin,Magnetic field MRCI      
  Miquel Garcia-Rates    : C-PCM and meta-GGA Hessian, CCSD/C-PCM, Gaussian charge scheme 
  Tiago L. C. Gouveia    : GS-ROHF, GS-ROCIS                             
  Yang Guo               : DLPNO-NEVPT2, F12-NEVPT2, CIM, IAO-localization        
  Andreas Hansen         : Spin unrestricted coupled pair/coupled cluster methods 
  Ingolf Harden          : AUTO-CI MPn and infrastructure                
  Benjamin Helmich-Paris : MC-RPA, TRAH-(SCF,CASSCF), AVAS, COSX integrals, SCF dyn. polar., MC-PDFT, srDFT 
  Lee Huntington         : MR-EOM, pCC                                   
  Robert Izsak           : Overlap fitted RIJCOSX, COSX-SCS-MP3, EOM     
  Riya Kayal             : Wick's Theorem for AUTO-CI, AUTO-CI UHF-CCSDT 
  Emily Kempfer          : AUTO-CI RHF CISDT and CCSDT, approximate NEVPT4
  Christian Kollmar      : KDIIS, OOCD, Brueckner-CCSD(T), CCSD density, CASPT2, CASPT2-K, improved NEVPT2 
  Axel Koslowski         : Symmetry handling                             
  Simone Kossmann        : meta-GGA functionals, TD-DFT gradient, OOMP2, (MP2 Hessian; deprecated post 5.0) 
  Lucas Lang             : DCDCAS, Hyperfine gauge corrections, ICE-SOC+SSC
  Marvin Lechner         : AUTO-CI (C++ implementation), FIC-MRCC        
  Spencer Leger          : CASSCF response                               
  Dagmar Lenk            : GEPOL surface, SMD, ORCA-2-JSON               
  Dimitrios Liakos       : Extrapolation schemes; Compound Job, Property file
  Dimitrios Manganas     : Further ROCIS development; embedding schemes. LFT, Crystal Embedding 
  Dimitrios Pantazis     : SARC Basis sets                               
  Anastasios Papadopoulos: AUTO-CI, single reference methods and gradients 
  Taras Petrenko         : pre 6.0 DFT Hessian and TD-DFT gradient,  ECA, NRVS 
  Petra Pikulova         : Analytic Raman intensities                    
  Peter Pinski           : DLPNO-MP2, DLPNO-MP2 Gradient                 
  Shashank Vittal Rao    : ES-AILFT, MagRelax                            
  Christoph Reimann      : Effective Core Potentials                     
  Marius Retegan         : Local ZFS, SOC                                
  Christoph Riplinger    : Optimizer, TS searches, QM/MM, DLPNO-CCSD(T), (RO)-DLPNO pert. Triples 
  Michael Roemelt        : Original ROCIS implementation, recursive CI coupling coefficients
  Masaaki Saitow         : Open-shell DLPNO-CCSD energy and density      
  Barbara Sandhoefer     : DKH picture change effects                    
  Yorick L. A. Schmerwitz: GMF and freeze-and-release deltaSCF, NEB S-IDPP initial path                    
  Kantharuban Sivalingam : CASSCF convergence/infrastructure, NEVPT2, NEVPT3, NEVPT4(SD), FIC-MRCI and CEPA variants
  Bernardo de Souza      : ESD, SOC TD-DFT                               
  Georgi L. Stoychev     : AutoAux, RI-MP2 NMR, DLPNO-MP2 response, X2C  
  Van Anh Tran           : RI-MP2 g-tensors                              
  Willem Van den Heuvel  : Paramagnetic NMR                              
  Zikuan Wang            : NOTCH, Electric field optimization            
  Frank Wennmohs         : Technical directorship and infrastructure     
  Hang Xu                : AUTO-CI-Response properties                   
                                                                         
[FACCTs GmbH]                                                            
  Markus Bursch, Nicolas Foglia, Miquel Garcia-Rates, Ingolf Harden, Hagen Neugebauer, Anastasios Papadopoulos, 
  Christoph Riplinger, Bernardo de Souza, Georgi L. Stoychev                                                    
                                                                 
  APM, various basis sets, CI-OPT, improved COSX, DLPNO-Multilevel,           
  DOCKER, DRACO, updates on ESD, Fragmentator, GOAT, IRC, LR-CPCM, L-BFGS, MBIS, meta-GGA TD-DFT gradient, ML-optimized integration grids, 
  MM, NACMEs, nearIR, NEB, NEB-TS, NL-DFT gradient (VV10), 2- and 3-layer-ONIOM, interface openCOSMO-RS, QMMM,   
  Crystal-QMMM, RESP, rigid body optimization, SF, symmetry and pop. for TD-DFT, various functionals, SOLVATOR                                   
                                                                         
[Other institutions]                                                     
  V. Asgeirsson          : NEB                                           
  Christoph Bannwarth    : sTDA-DFT, sTD-DFT, PBEh-3c, B97-3c, D3        
  Giovanni Bistoni       : ETS/NOCV, ADLD/ADEX, COVALED                  
  Martin Brehm           : Molecular dynamics                            
  Ronald Cardenas        : ETS/NOCV                                      
  Martina Colucci        : COVALED                                       
  Sebastian Ehlert       : rSCAN, r2SCAN, r2SCAN-3c, D4, dhf basis sets  
  Marvin Friede          : D4 for Fr, Ra, Ac-Lr                          
  Lars Goerigk           : TD-DFT with DH, B97 family of functionals     
  Stefan Grimme          : VdW corrections, initial TS optimization, DFT functionals, gCP, sTDA/sTD-DF 
  Waldemar Hujo          : DFT-NL                                        
  H. Jonsson             : NEB                                           
  Holger Kruse           : gCP                                           
  Marcel Mueller         : wB97X-3c, vDZP basis set                      
  Hagen Neugebauer       : wr2SCAN, Native XTB                           
  Gianluca Regni         : ADLD/ADEX                                     
  Tobias Risthaus        : pre 6.0 range-separated hybrid DFT and stability analysis
  Lukas Wittmann         : regularized MP2, r2SCAN double-hybrids, wr2SCAN        
                                                                         
We gratefully acknowledge several colleagues who have allowed us to      
interface, adapt or use parts of their codes:                            
  Ed Valeev, F. Pavosevic, A. Kumar             : LibInt (2-el integral package), F12 methods 
  Garnet Chan, S. Sharma, J. Yang, R. Olivares  : DMRG                   
  Ulf Ekstrom                                   : XCFun DFT Library      
  Mihaly Kallay                                 : mrcc  (arbitrary order and MRCC methods)
  Frank Weinhold                                : gennbo (NPA and NBO analysis)           
  Simon Mueller                                 : openCOSMO-RS                            
  Christopher J. Cramer and Donald G. Truhlar   : smd solvation model                     
  S Lehtola, MJT Oliveira, MAL Marques          : LibXC Library                           
  Liviu Ungur et al                             : ANISO software                          


 Your calculation uses the libint2 library for the computation of 2-el integrals
 For citations please refer to: http://libint.valeyev.net

 Your ORCA version has been built with support for libXC version: 7.0.0
 For citations please refer to: https://libxc.gitlab.io

 This ORCA versions uses:
   CBLAS   interface :  Fast vector & matrix operations
   LAPACKE interface :  Fast linear algebra routines
   SCALAPACK package :  Parallel linear algebra routines
   Shared memory     :  Shared parallel matrices
   BLAS/LAPACK       :  OpenBLAS 0.3.29  USE64BITINT DYNAMIC_ARCH NO_AFFINITY SkylakeX SINGLE_THREADED
        Core in use  :  SkylakeX
   Copyright (c) 2011-2014, The OpenBLAS Project


  ***********************************
  * Starting time: Wed Dec 10 17:12:30 2025
  * Host name:     Jhonnytest
  * Process ID:    32441
  * Working dir.:  /home/jhonapontee/Group-theory/Proyecto/D3h/singulete
  ***********************************

Warning: RI is on but no J-basis has been assigned. Assigning Def2/J (nothing to worry about!)
================================================================================

----- Orbital basis set information -----
Your calculation utilizes the basis: def2-SVP
   F. Weigend and R. Ahlrichs, Phys. Chem. Chem. Phys. 7, 3297 (2005).

----- AuxJ basis set information -----
Your calculation utilizes the auxiliary basis: def2/J
   H-Rn: F. Weigend, Phys. Chem. Chem. Phys. 8, 1057 (2006).
   Fr-Lr: K. Eichkorn, F. Weigend, O. Treutler, R. Ahlrichs; Theor. Chem. Acc. 97, 119 (1997).

================================================================================
                                        WARNINGS
                       Please study these warnings very carefully!
================================================================================


WARNING: Broken symmetry calculations need fully converged wavefunctions
  ===> : Setting SCFConvForced true
         You can overwrite this default with %scf ConvForced false 


================================================================================
                                       INPUT FILE
================================================================================
NAME = d3h-singulete.inp
|  1> ! UKS B3LYP def2-SVP TightSCF SP
|  2> ! NoUseSym
|  3> ! MORead
|  4> 
|  5> %moinp "d3h-triplete.gbw"
|  6> 
|  7> %scf
|  8>   MaxIter 300
|  9>   FlipSpin 4   
| 10>   FinalMs  0.0
| 11> end
| 12> 
| 13> 
| 14> * xyz 0 3
| 15> C   0.00000   0.00000  -1.75000
| 16> H   1.08250   0.00000  -1.75000
| 17> H  -0.54125   0.93740  -1.75000
| 18> H  -0.54125  -0.93740  -1.75000
| 19> C   0.00000   0.00000   1.75000
| 20> H   1.08250   0.00000   1.75000
| 21> H  -0.54125   0.93740   1.75000
| 22> H  -0.54125  -0.93740   1.75000
| 23> *
| 24> 
| 25>                          ****END OF INPUT****
================================================================================

                       ****************************
                       * Single Point Calculation *
                       ****************************

---------------------------------
CARTESIAN COORDINATES (ANGSTROEM)
---------------------------------
  C      0.000000    0.000000   -1.750000
  H      1.082500    0.000000   -1.750000
  H     -0.541250    0.937400   -1.750000
  H     -0.541250   -0.937400   -1.750000
  C      0.000000    0.000000    1.750000
  H      1.082500    0.000000    1.750000
  H     -0.541250    0.937400    1.750000
  H     -0.541250   -0.937400    1.750000

----------------------------
CARTESIAN COORDINATES (A.U.)
----------------------------
  NO LB      ZA    FRAG     MASS         X           Y           Z
   0 C     6.0000    0    12.011    0.000000    0.000000   -3.307021
   1 H     1.0000    0     1.008    2.045629    0.000000   -3.307021
   2 H     1.0000    0     1.008   -1.022814    1.771429   -3.307021
   3 H     1.0000    0     1.008   -1.022814   -1.771429   -3.307021
   4 C     6.0000    0    12.011    0.000000    0.000000    3.307021
   5 H     1.0000    0     1.008    2.045629    0.000000    3.307021
   6 H     1.0000    0     1.008   -1.022814    1.771429    3.307021
   7 H     1.0000    0     1.008   -1.022814   -1.771429    3.307021

--------------------------------
INTERNAL COORDINATES (ANGSTROEM)
--------------------------------
 C      0   0   0     0.000000000000     0.00000000     0.00000000
 H      1   0   0     1.082500000000     0.00000000     0.00000000
 H      1   2   0     1.082437214115   120.00191878     0.00000000
 H      1   2   3     1.082437214115   120.00191878   180.00000000
 C      1   2   3     3.500000000000    90.00000000   270.00000000
 H      5   1   2     1.082500000000    90.00000000     0.00000000
 H      5   1   2     1.082437214115    90.00000000   120.00191878
 H      5   1   2     1.082437214115    90.00000000   239.99808122

---------------------------
INTERNAL COORDINATES (A.U.)
---------------------------
 C      0   0   0     0.000000000000     0.00000000     0.00000000
 H      1   0   0     2.045628539970     0.00000000     0.00000000
 H      1   2   0     2.045509891841   120.00191878     0.00000000
 H      1   2   3     2.045509891841   120.00191878   180.00000000
 C      1   2   3     6.614041468724    90.00000000   270.00000000
 H      5   1   2     2.045628539970    90.00000000     0.00000000
 H      5   1   2     2.045509891841    90.00000000   120.00191878
 H      5   1   2     2.045509891841    90.00000000   239.99808122

---------------------
BASIS SET INFORMATION
---------------------
There are 2 groups of distinct atoms

 Group   1 Type C   : 7s4p1d contracted to 3s2p1d pattern {511/31/1}
 Group   2 Type H   : 4s1p contracted to 2s1p pattern {31/1}

Atom   0C    basis set group =>   1
Atom   1H    basis set group =>   2
Atom   2H    basis set group =>   2
Atom   3H    basis set group =>   2
Atom   4C    basis set group =>   1
Atom   5H    basis set group =>   2
Atom   6H    basis set group =>   2
Atom   7H    basis set group =>   2
---------------------------------
AUXILIARY/J BASIS SET INFORMATION
---------------------------------
There are 2 groups of distinct atoms

 Group   1 Type C   : 12s5p4d2f1g contracted to 6s4p3d1f1g pattern {711111/2111/211/2/1}
 Group   2 Type H   : 5s2p1d contracted to 3s1p1d pattern {311/2/1}

Atom   0C    basis set group =>   1
Atom   1H    basis set group =>   2
Atom   2H    basis set group =>   2
Atom   3H    basis set group =>   2
Atom   4C    basis set group =>   1
Atom   5H    basis set group =>   2
Atom   6H    basis set group =>   2
Atom   7H    basis set group =>   2
------------------------------------------------------------------------------
                             ORCA STARTUP CALCULATIONS
                           -- RI-GTO INTEGRALS CHOSEN --
------------------------------------------------------------------------------
------------------------------------------------------------------------------
                   ___                                                        
                  /   \      - P O W E R E D   B Y -                         
                 /     \                                                     
                 |  |  |   _    _      __       _____    __    __             
                 |  |  |  | |  | |    /  \     |  _  \  |  |  /  |          
                  \  \/   | |  | |   /    \    | | | |  |  | /  /          
                 / \  \   | |__| |  /  /\  \   | |_| |  |  |/  /          
                |  |  |   |  __  | /  /__\  \  |    /   |      \           
                |  |  |   | |  | | |   __   |  |    \   |  |\   \          
                \     /   | |  | | |  |  |  |  | |\  \  |  | \   \       
                 \___/    |_|  |_| |__|  |__|  |_| \__\ |__|  \__/        
                                                                              
                      - O R C A' S   B I G   F R I E N D -                    
                                      &                                       
                       - I N T E G R A L  F E E D E R -                       
                                                                              
 v1 FN, 2020, v2 2021, v3 2022-2024                                           
------------------------------------------------------------------------------


----------------------
SHARK INTEGRAL PACKAGE
----------------------

Number of atoms                             ...      8
Number of basis functions                   ...     58
Number of shells                            ...     30
Maximum angular momentum                    ...      2
Integral batch strategy                     ... SHARK/LIBINT Hybrid
RI-J (if used) integral strategy            ... SPLIT-RIJ (Revised 2003 algorithm where possible)
Printlevel                                  ...      1
Contraction scheme used                     ... SEGMENTED contraction
Prescreening option                         ... SCHWARTZ
   Thresh                                   ... 2.500e-11
   Tcut                                     ... 2.500e-12
   Tpresel                                  ... 2.500e-12 
Coulomb Range Separation                    ... NOT USED
Exchange Range Separation                   ... NOT USED
Multipole approximations                    ... NOT USED
Finite Nucleus Model                        ... NOT USED
CABS basis                                  ... NOT available
Auxiliary Coulomb fitting basis             ... AVAILABLE
   # of basis functions in Aux-J            ...    164
   # of shells in Aux-J                     ...     60
   Maximum angular momentum in Aux-J        ...      4
Auxiliary J/K fitting basis                 ... NOT available
Auxiliary Correlation fitting basis         ... NOT available
Auxiliary 'external' fitting basis          ... NOT available

Checking pre-screening integrals            ... done (  0.0 sec) Dimension = 30
   => SHARK Basis and OBASIS are compatible. Storing Pre-screening
Shell pair information
Shell pair cut-off parameter TPreSel        ...   2.5e-12
Total number of shell pairs                 ...       465
Shell pairs after pre-screening             ...       458
Total number of primitive shell pairs       ...      1529
Primitive shell pairs kept                  ...      1254
          la=0 lb=0:    170 shell pairs
          la=1 lb=0:    174 shell pairs
          la=1 lb=1:     55 shell pairs
          la=2 lb=0:     36 shell pairs
          la=2 lb=1:     20 shell pairs
          la=2 lb=2:      3 shell pairs

Checking whether 4 symmetric matrices of dimension 58 fit in memory
:Max Core in MB      =   4096.00
 MB in use           =      3.78
 MB left             =   4092.22
 MB needed           =      0.05
 Data fit in memory  = YES
Calculating RI/J V-Matrix + Cholesky decomp.... done (  0.0 sec)
Calculating Nuclear repulsion               ... done (  0.0 sec) ENN=     31.188823454856 Eh

Diagonalization of the overlap matrix:
Smallest eigenvalue                        ... 1.896e-02
Time for diagonalization                   ...    0.002 sec
Threshold for overlap eigenvalues          ... 1.000e-07
Number of eigenvalues below threshold      ... 0
Time for construction of square roots      ...    0.000 sec
Total time needed                          ...    0.003 sec

-------------------
DFT GRID GENERATION
-------------------

General Integration Accuracy     IntAcc      ... 4.388
Radial Grid Type                 RadialGrid  ... OptM3 with GC (2021)
Angular Grid (max. ang.)         AngularGrid ... 4 (Lebedev-302)
Angular grid pruning method      GridPruning ... 4 (adaptive)
Weight generation scheme         WeightScheme... mBecke (2022)
Basis function cutoff            BFCut       ... 1.0000e-11
Integration weight cutoff        WCut        ... 1.0000e-14
Partially contracted basis set               ... off
Rotationally invariant grid construction     ... off
Angular grids for H and He will be reduced by one unit

Total number of grid points                  ...    31956
Total number of batches                      ...      504
Average number of points per batch           ...       63
Average number of grid points per atom       ...     3994

--------------------
COSX GRID GENERATION
--------------------

GRIDX 1
-------
General Integration Accuracy     IntAcc      ... 3.816
Radial Grid Type                 RadialGrid  ... OptM3 with GC (2021)
Angular Grid (max. ang.)         AngularGrid ... 1 (Lebedev-50)
Angular grid pruning method      GridPruning ... 4 (adaptive)
Weight generation scheme         WeightScheme... mBecke (2022)
Basis function cutoff            BFCut       ... 1.0000e-11
Integration weight cutoff        WCut        ... 1.0000e-14
Partially contracted basis set               ... on
Rotationally invariant grid construction     ... off
Angular grids for H and He will be reduced by one unit

Total number of grid points                  ...     4156
Total number of batches                      ...       38
Average number of points per batch           ...      109
Average number of grid points per atom       ...      520
UseSFitting                                  ... on

GRIDX 2
-------
General Integration Accuracy     IntAcc      ... 4.020
Radial Grid Type                 RadialGrid  ... OptM3 with GC (2021)
Angular Grid (max. ang.)         AngularGrid ... 2 (Lebedev-110)
Angular grid pruning method      GridPruning ... 4 (adaptive)
Weight generation scheme         WeightScheme... mBecke (2022)
Basis function cutoff            BFCut       ... 1.0000e-11
Integration weight cutoff        WCut        ... 1.0000e-14
Partially contracted basis set               ... on
Rotationally invariant grid construction     ... off
Angular grids for H and He will be reduced by one unit

Total number of grid points                  ...     8476
Total number of batches                      ...       70
Average number of points per batch           ...      121
Average number of grid points per atom       ...     1060
UseSFitting                                  ... on

GRIDX 3
-------
General Integration Accuracy     IntAcc      ... 4.338
Radial Grid Type                 RadialGrid  ... OptM3 with GC (2021)
Angular Grid (max. ang.)         AngularGrid ... 3 (Lebedev-194)
Angular grid pruning method      GridPruning ... 4 (adaptive)
Weight generation scheme         WeightScheme... mBecke (2022)
Basis function cutoff            BFCut       ... 1.0000e-11
Integration weight cutoff        WCut        ... 1.0000e-14
Partially contracted basis set               ... on
Rotationally invariant grid construction     ... off
Angular grids for H and He will be reduced by one unit

Total number of grid points                  ...    18622
Total number of batches                      ...      149
Average number of points per batch           ...      124
Average number of grid points per atom       ...     2328
UseSFitting                                  ... on
Grids setup in   0.2 sec
Initializing property integral containers    ... done (  0.0 sec)

SHARK setup successfully completed in   0.2 seconds

Maximum memory used throughout the entire STARTUP-calculation: 13.5 MB
-------------------------------------------------------------------------------
                                 ORCA GUESS
                   Start orbitals & Density for SCF / CASSCF
-------------------------------------------------------------------------------

------------
SCF SETTINGS
------------
Hamiltonian:
 Density Functional     Method          .... DFT(GTOs)
 Exchange Functional    Exchange        .... B88
   X-Alpha parameter    XAlpha          ....  0.666667
   Becke's b parameter  XBeta           ....  0.004200
 Correlation Functional Correlation     .... LYP
 LDA part of GGA corr.  LDAOpt          .... VWN-5
 Gradients option       PostSCFGGA      .... off
 Hybrid DFT is turned on
   Fraction HF Exchange ScalHFX         ....  0.200000
   Scaling of DF-GGA-X  ScalDFX         ....  0.720000
   Scaling of DF-GGA-C  ScalDFC         ....  0.810000
   Scaling of DF-LDA-C  ScalLDAC        ....  1.000000
   Perturbative correction              ....  0.000000
   NL short-range parameter             ....  4.800000
 RI-approximation to the Coulomb term is turned on
   Number of AuxJ basis functions       .... 164
   RIJ-COSX (HFX calculated with COS-X)).... on


General Settings:
 Integral files         IntName         .... d3h-singulete
 Hartree-Fock type      HFTyp           .... UHF
 Total Charge           Charge          ....    0
 Multiplicity           Mult            ....    3
 Number of Electrons    NEL             ....   18
 Basis Dimension        Dim             ....   58
 Nuclear Repulsion      ENuc            ....     31.1888234549 Eh

Convergence Acceleration:
 AO-DIIS                CNVDIIS         .... on
   Start iteration      DIISMaxIt       ....    12
   Startup error        DIISStart       ....  0.200000
   # of expansion vecs  DIISMaxEq       ....     5
   Bias factor          DIISBfac        ....   1.050
   Max. coefficient     DIISMaxC        ....  10.000
 MO-DIIS                CNVKDIIS        .... off
 Trust-Rad. Augm. Hess. CNVTRAH         .... auto
   Auto Start mean grad. ratio tolernc. ....  1.125000
   Auto Start start iteration           ....     1
   Auto Start num. interpolation iter.  ....    10
   Max. Number of Micro iterations      ....    24
   Max. Number of Macro iterations      .... Maxiter - #DIIS iter
   Number of Davidson start vectors     ....     2
   Converg. threshold    (grad. norm)   ....   1.000e-05
   Grad. Scal. Fac. for Micro threshold ....   0.100
   Minimum threshold for Micro iter.    ....   1.000e-02
   NR start threshold (gradient norm)   ....   1.000e-04
   Initial trust radius                 ....   0.400
   Minimum AH scaling param. (alpha)    ....   1.000
   Maximum AH scaling param. (alpha)    .... 1000.000
   Quad. conv. algorithm                .... NR
   White noise on init. David. guess    .... on
   Maximum white noise                  ....   0.010
   Pseudo random numbers                .... off
   Inactive MOs                         .... canonical
   Orbital update algorithm             .... Taylor
   Preconditioner                       .... Diag
   Full preconditioner red. dimension   ....   250
 SOSCF                 CNVSOSCF           .... on
   Start iteration     SOSCFMaxIt         ....   150
   Startup grad/error  SOSCFStart         ....  0.003300
   Hessian update      SOSCFHessUp        .... L-BFGS
   Autom. constraints  SOSCFAutoConstrain .... off
 Level Shifting         CNVShift        .... on
   Level shift para.    LevelShift      ....    0.2500
   Turn off err/grad.   ShiftErr        ....    0.0010
 Zerner damping         CNVZerner       .... off
 Static damping         CNVDamp         .... on
   Fraction old density DampFac         ....    0.7000
   Max. Damping (<1)    DampMax         ....    0.9800
   Min. Damping (>=0)   DampMin         ....    0.0000
   Turn off err/grad.   DampErr         ....    0.1000

SCF Procedure:
 Maximum # iterations   MaxIter         ....   300
 SCF integral mode      SCFMode         .... Direct
   Integral package                     .... SHARK and LIBINT hybrid scheme
 Reset frequency        DirectResetFreq ....    20
 Integral Threshold     Thresh          ....  2.500e-11 Eh
 Primitive CutOff       TCut            ....  2.500e-12 Eh

Convergence Tolerance:
 Convergence Check Mode ConvCheckMode   .... Total+1el-Energy
 Convergence forced     ConvForced      .... 1
 Energy Change          TolE            ....  1.000e-08 Eh
 1-El. energy change                    ....  1.000e-05 Eh
 Orbital Gradient       TolG            ....  1.000e-05
 Orbital Rotation angle TolX            ....  1.000e-05
 DIIS Error             TolErr          ....  5.000e-07


The Flip-Spin feature is operative for generating broken symmetry solutions
List of atoms to flip:
 C 4
We will now do a high-spin calculation with                 Ms=  1.0
and then try to converge to the broken symmetry state with Ms=  0.0

---------------------
INITIAL GUESS: MOREAD
---------------------
Guess MOs are being read from file: d3h-triplete.gbw
Input Geometry matches current geometry (good)
Input basis set matches current basis set (good)
MOs were renormalized
MOs were reorthogonalized (Cholesky)
                      ------------------
                      INITIAL GUESS DONE (   0.0 sec)
                      ------------------
             **** ENERGY FILE WAS UPDATED (d3h-singulete.en.tmp) ****
Finished Guess after   0.0 sec
Maximum memory used throughout the entire GUESS-calculation: 6.2 MB

-------------------------------------------------------------------------------------------
                                      ORCA LEAN-SCF
                              memory conserving SCF solver
-------------------------------------------------------------------------------------------

                     ******************************************
                               F L I P    S P I N
                           -----------------------------
                            High-Spin SCF calculation
                                S(HS) =   1.0
                      ******************************************
 ----------------------------------------D-I-I-S--------------------------------------------
Iteration    Energy (Eh)           Delta-E    RMSDP     MaxDP     DIISErr   Damp  Time(sec)
-------------------------------------------------------------------------------------------
               ***  Starting incremental Fock matrix formation  ***
                              *** Initializing SOSCF ***
---------------------------------------S-O-S-C-F--------------------------------------
Iteration    Energy (Eh)           Delta-E    RMSDP     MaxDP     MaxGrad    Time(sec)
--------------------------------------------------------------------------------------
    1    -79.5522421188973112     0.00e+00  6.06e-07  7.46e-06  1.92e-06     0.2
               *** Restarting incremental Fock matrix formation ***
    2    -79.5522421205045305    -1.61e-09  1.36e-07  1.49e-06  1.31e-06     0.2
                  *** Gradient check signals convergence ***

               *****************************************************
               *                     SUCCESS                       *
               *           SCF CONVERGED AFTER   2 CYCLES          *
               *****************************************************

Recomputing exchange energy using gridx3       ... done (    0.256 sec)
Old exchange energy                            :     -2.483452612 Eh
New exchange energy                            :     -2.483417318 Eh
Exchange energy change after final integration :      0.000035294 Eh
Total energy after final integration           :    -79.552206827 Eh
             **** ENERGY FILE WAS UPDATED (d3h-singulete.en.tmp) ****

----------------
TOTAL SCF ENERGY
----------------

Total Energy       :        -79.55220682668910 Eh           -2164.72560 eV

Components:
Nuclear Repulsion  :         31.18882345485604 Eh             848.69103 eV
Electronic Energy  :       -110.74106557597639 Eh           -3013.41759 eV
One Electron Energy:       -166.94407771415734 Eh           -4542.77931 eV
Two Electron Energy:         56.20301213818095 Eh            1529.36171 eV

Virial components:
Potential Energy   :       -158.11946524117104 Eh           -4302.64939 eV
Kinetic Energy     :         78.56725841448193 Eh            2137.92379 eV
Virial Ratio       :          2.01253637242897

DFT components:
N(Alpha)           :       10.000003680550 electrons
N(Beta)            :        8.000001752172 electrons
N(Total)           :       18.000005432721 electrons
E(X)               :       -9.809122269372 Eh       
E(C)               :       -0.619812505187 Eh       
E(XC)              :      -10.428934774559 Eh       

---------------
SCF CONVERGENCE
---------------

  Last Energy change         ...    1.6072e-09  Tolerance :   1.0000e-08
  Last MAX-Density change    ...    1.4893e-06  Tolerance :   1.0000e-07
  Last RMS-Density change    ...    1.3559e-07  Tolerance :   5.0000e-09
  Last DIIS Error            ...    5.2007e-06  Tolerance :   5.0000e-07
  Last Orbital Gradient      ...    1.3100e-06  Tolerance :   1.0000e-05
  Last Orbital Rotation      ...    1.8489e-06  Tolerance :   1.0000e-05


----------------------
UHF SPIN CONTAMINATION
----------------------

Warning: in a DFT calculation there is little theoretical justification to 
         calculate <S**2> as in Hartree-Fock theory. We will do it anyways
         but you should keep in mind that the values have only limited relevance

Expectation value of <S**2>     :     2.007279
Ideal value S*(S+1) for S=1.0   :     2.000000
Deviation                       :     0.007279


                    ********************************
                    * MULLIKEN POPULATION ANALYSIS *
                    ********************************

--------------------------------------------
MULLIKEN ATOMIC CHARGES AND SPIN POPULATIONS
--------------------------------------------
   0 C :   -0.157908    1.138543
   1 H :    0.052613   -0.046183
   2 H :    0.052648   -0.046180
   3 H :    0.052648   -0.046180
   4 C :   -0.157908    1.138543
   5 H :    0.052613   -0.046183
   6 H :    0.052648   -0.046180
   7 H :    0.052648   -0.046180
Sum of atomic charges         :   -0.0000000
Sum of atomic spin populations:    2.0000000

-----------------------------------------------------
MULLIKEN REDUCED ORBITAL CHARGES AND SPIN POPULATIONS
-----------------------------------------------------
CHARGE
  0 C s       :     3.198494  s :     3.198494
      pz      :     0.982416  p :     2.944928
      px      :     0.981330
      py      :     0.981182
      dz2     :     0.001665  d :     0.014487
      dxz     :     0.000001
      dyz     :     0.000001
      dx2y2   :     0.006409
      dxy     :     0.006410

  1 H s       :     0.922913  s :     0.922913
      pz      :     0.005380  p :     0.024473
      px      :     0.014528
      py      :     0.004565

  2 H s       :     0.922880  s :     0.922880
      pz      :     0.005380  p :     0.024472
      px      :     0.007057
      py      :     0.012036

  3 H s       :     0.922880  s :     0.922880
      pz      :     0.005380  p :     0.024472
      px      :     0.007057
      py      :     0.012036

  4 C s       :     3.198494  s :     3.198494
      pz      :     0.982416  p :     2.944928
      px      :     0.981330
      py      :     0.981182
      dz2     :     0.001665  d :     0.014487
      dxz     :     0.000001
      dyz     :     0.000001
      dx2y2   :     0.006409
      dxy     :     0.006410

  5 H s       :     0.922913  s :     0.922913
      pz      :     0.005380  p :     0.024473
      px      :     0.014528
      py      :     0.004565

  6 H s       :     0.922880  s :     0.922880
      pz      :     0.005380  p :     0.024472
      px      :     0.007057
      py      :     0.012036

  7 H s       :     0.922880  s :     0.922880
      pz      :     0.005380  p :     0.024472
      px      :     0.007057
      py      :     0.012036


SPIN
  0 C s       :     0.082965  s :     0.082965
      pz      :     0.982061  p :     1.058258
      px      :     0.038093
      py      :     0.038104
      dz2     :    -0.002625  d :    -0.002681
      dxz     :     0.000000
      dyz     :     0.000000
      dx2y2   :    -0.000028
      dxy     :    -0.000028

  1 H s       :    -0.051827  s :    -0.051827
      pz      :     0.005378  p :     0.005643
      px      :     0.000421
      py      :    -0.000156

  2 H s       :    -0.051822  s :    -0.051822
      pz      :     0.005378  p :     0.005643
      px      :    -0.000012
      py      :     0.000277

  3 H s       :    -0.051822  s :    -0.051822
      pz      :     0.005378  p :     0.005643
      px      :    -0.000012
      py      :     0.000277

  4 C s       :     0.082965  s :     0.082965
      pz      :     0.982061  p :     1.058258
      px      :     0.038093
      py      :     0.038104
      dz2     :    -0.002625  d :    -0.002681
      dxz     :     0.000000
      dyz     :     0.000000
      dx2y2   :    -0.000028
      dxy     :    -0.000028

  5 H s       :    -0.051827  s :    -0.051827
      pz      :     0.005378  p :     0.005643
      px      :     0.000421
      py      :    -0.000156

  6 H s       :    -0.051822  s :    -0.051822
      pz      :     0.005378  p :     0.005643
      px      :    -0.000012
      py      :     0.000277

  7 H s       :    -0.051822  s :    -0.051822
      pz      :     0.005378  p :     0.005643
      px      :    -0.000012
      py      :     0.000277



                     *******************************
                     * LOEWDIN POPULATION ANALYSIS *
                     *******************************

-------------------------------------------
LOEWDIN ATOMIC CHARGES AND SPIN POPULATIONS
-------------------------------------------
   0 C :   -0.042138    1.003111
   1 H :    0.014058   -0.001043
   2 H :    0.014040   -0.001034
   3 H :    0.014040   -0.001034
   4 C :   -0.042138    1.003111
   5 H :    0.014058   -0.001043
   6 H :    0.014040   -0.001034
   7 H :    0.014040   -0.001034

----------------------------------------------------
LOEWDIN REDUCED ORBITAL CHARGES AND SPIN POPULATIONS
----------------------------------------------------
CHARGE
  0 C s       :     2.944898  s :     2.944898
      pz      :     0.938558  p :     3.061192
      px      :     1.061332
      py      :     1.061302
      dz2     :     0.003271  d :     0.036048
      dxz     :     0.000001
      dyz     :     0.000001
      dx2y2   :     0.016385
      dxy     :     0.016391

  1 H s       :     0.911615  s :     0.911615
      pz      :     0.019654  p :     0.074328
      px      :     0.043868
      py      :     0.010806

  2 H s       :     0.911621  s :     0.911621
      pz      :     0.019657  p :     0.074339
      px      :     0.019075
      py      :     0.035607

  3 H s       :     0.911621  s :     0.911621
      pz      :     0.019657  p :     0.074339
      px      :     0.019075
      py      :     0.035607

  4 C s       :     2.944898  s :     2.944898
      pz      :     0.938558  p :     3.061192
      px      :     1.061332
      py      :     1.061302
      dz2     :     0.003271  d :     0.036048
      dxz     :     0.000001
      dyz     :     0.000001
      dx2y2   :     0.016385
      dxy     :     0.016391

  5 H s       :     0.911615  s :     0.911615
      pz      :     0.019654  p :     0.074328
      px      :     0.043868
      py      :     0.010806

  6 H s       :     0.911621  s :     0.911621
      pz      :     0.019657  p :     0.074339
      px      :     0.019075
      py      :     0.035607

  7 H s       :     0.911621  s :     0.911621
      pz      :     0.019657  p :     0.074339
      px      :     0.019075
      py      :     0.035607


SPIN
  0 C s       :     0.032637  s :     0.032637
      pz      :     0.938354  p :     0.974536
      px      :     0.018090
      py      :     0.018092
      dz2     :    -0.002243  d :    -0.004062
      dxz     :     0.000000
      dyz     :     0.000000
      dx2y2   :    -0.000910
      dxy     :    -0.000910

  1 H s       :    -0.024584  s :    -0.024584
      pz      :     0.019651  p :     0.023542
      px      :     0.003518
      py      :     0.000374

  2 H s       :    -0.024578  s :    -0.024578
      pz      :     0.019653  p :     0.023544
      px      :     0.001160
      py      :     0.002731

  3 H s       :    -0.024578  s :    -0.024578
      pz      :     0.019653  p :     0.023544
      px      :     0.001160
      py      :     0.002731

  4 C s       :     0.032637  s :     0.032637
      pz      :     0.938354  p :     0.974536
      px      :     0.018090
      py      :     0.018092
      dz2     :    -0.002243  d :    -0.004062
      dxz     :     0.000000
      dyz     :     0.000000
      dx2y2   :    -0.000910
      dxy     :    -0.000910

  5 H s       :    -0.024584  s :    -0.024584
      pz      :     0.019651  p :     0.023542
      px      :     0.003518
      py      :     0.000374

  6 H s       :    -0.024578  s :    -0.024578
      pz      :     0.019653  p :     0.023544
      px      :     0.001160
      py      :     0.002731

  7 H s       :    -0.024578  s :    -0.024578
      pz      :     0.019653  p :     0.023544
      px      :     0.001160
      py      :     0.002731



                      *****************************
                      * MAYER POPULATION ANALYSIS *
                      *****************************

  NA   - Mulliken gross atomic population
  ZA   - Total nuclear charge
  QA   - Mulliken gross atomic charge
  VA   - Mayer's total valence
  BVA  - Mayer's bonded valence
  FA   - Mayer's free valence

  ATOM       NA         ZA         QA         VA         BVA        FA
  0 C      6.1579     6.0000    -0.1579     3.9599     2.9874     0.9726
  1 H      0.9474     1.0000     0.0526     0.9880     0.9852     0.0028
  2 H      0.9474     1.0000     0.0526     0.9879     0.9852     0.0028
  3 H      0.9474     1.0000     0.0526     0.9879     0.9852     0.0028
  4 C      6.1579     6.0000    -0.1579     3.9599     2.9874     0.9726
  5 H      0.9474     1.0000     0.0526     0.9880     0.9852     0.0028
  6 H      0.9474     1.0000     0.0526     0.9879     0.9852     0.0028
  7 H      0.9474     1.0000     0.0526     0.9879     0.9852     0.0028

  Mayer bond orders larger than 0.100000
B(  0-C ,  1-H ) :   0.9935 B(  0-C ,  2-H ) :   0.9935 B(  0-C ,  3-H ) :   0.9935 
B(  4-C ,  5-H ) :   0.9935 B(  4-C ,  6-H ) :   0.9935 B(  4-C ,  7-H ) :   0.9935 


-------------------------
FLIP-SPIN BROKEN SYMMETRY
-------------------------

 Flipping spin on atom C  4
Before flipping the spin we have:
Multiplicity                     ... 3
Number of unpaired electrons     ... 2
Number of spin-up electrons      ... 10
Number of spin-down electrons    ... 8
HOMO spin-up                     ... 9
HOMO spin-down                   ... 7
After flipping the spin we have:
Multiplicity                     ... 1
Number of unpaired electrons     ... 0
Number of spin-up electrons      ... 9
Number of spin-down electrons    ... 9
HOMO spin-up                     ... 8
HOMO spin-down                   ... 8

                      ******************************************
                               F L I P    S P I N
                           -----------------------------
                           Broken Symmetry SCF calculation
                                   MS(BS) =   0.0
                      ******************************************
 
The new occupation numbers
   0:    1.000    1.000
   1:    1.000    1.000
   2:    1.000    1.000
   3:    1.000    1.000
   4:    1.000    1.000
   5:    1.000    1.000
   6:    1.000    1.000
   7:    1.000    1.000
   8:    1.000    1.000
   9:    0.000    0.000
  10:    0.000    0.000
  11:    0.000    0.000
  12:    0.000    0.000
  13:    0.000    0.000
  14:    0.000    0.000
  15:    0.000    0.000
  16:    0.000    0.000
  17:    0.000    0.000
  18:    0.000    0.000
  19:    0.000    0.000

----------------------------------------D-I-I-S--------------------------------------------
Iteration    Energy (Eh)           Delta-E    RMSDP     MaxDP     DIISErr   Damp  Time(sec)
-------------------------------------------------------------------------------------------
               ***  Starting incremental Fock matrix formation  ***
                              *** Initializing SOSCF ***
---------------------------------------S-O-S-C-F--------------------------------------
Iteration    Energy (Eh)           Delta-E    RMSDP     MaxDP     MaxGrad    Time(sec)
--------------------------------------------------------------------------------------
    1    -79.5566261547655529     0.00e+00  4.13e-04  7.44e-03  4.23e-15     0.2
               *** Restarting incremental Fock matrix formation ***
    2    -79.5569073284772230    -2.81e-04  1.47e-04  2.95e-03  1.11e-03     0.2
    3    -79.5569265822224168    -1.93e-05  6.77e-05  1.07e-03  8.51e-04     0.2
    4    -79.5569357183858870    -9.14e-06  7.70e-06  1.20e-04  5.17e-05     0.2
    5    -79.5569358154579618    -9.71e-08  3.30e-06  4.11e-05  1.87e-05     0.2
    6    -79.5569358275448906    -1.21e-08  6.53e-07  8.32e-06  5.68e-06     0.2
    7    -79.5569358272286991     3.16e-10  1.04e-07  2.82e-06  1.38e-06     0.2
                 **** Energy Check signals convergence ****

               *****************************************************
               *                     SUCCESS                       *
               *           SCF CONVERGED AFTER   7 CYCLES          *
               *****************************************************

Recomputing exchange energy using gridx3       ... done (    0.283 sec)
Old exchange energy                            :     -2.480097946 Eh
New exchange energy                            :     -2.480062638 Eh
Exchange energy change after final integration :      0.000035308 Eh
Total energy after final integration           :    -79.556900519 Eh
             **** ENERGY FILE WAS UPDATED (d3h-singulete.en.tmp) ****

----------------
TOTAL SCF ENERGY
----------------

Total Energy       :        -79.55690051884007 Eh           -2164.85332 eV

Components:
Nuclear Repulsion  :         31.18882345485604 Eh             848.69103 eV
Electronic Energy  :       -110.74575928180001 Eh           -3013.54532 eV
One Electron Energy:       -166.93188893232943 Eh           -4542.44763 eV
Two Electron Energy:         56.18612965052942 Eh            1528.90232 eV

Virial components:
Potential Energy   :       -158.09097200678573 Eh           -4301.87405 eV
Kinetic Energy     :         78.53407148794567 Eh            2137.02073 eV
Virial Ratio       :          2.01302401634750

DFT components:
N(Alpha)           :        9.000003767418 electrons
N(Beta)            :        9.000003767465 electrons
N(Total)           :       18.000007534883 electrons
E(X)               :       -9.799910362950 Eh       
E(C)               :       -0.621498521441 Eh       
E(XC)              :      -10.421408884391 Eh       

---------------
SCF CONVERGENCE
---------------

  Last Energy change         ...   -3.1619e-10  Tolerance :   1.0000e-08
  Last MAX-Density change    ...    2.8181e-06  Tolerance :   1.0000e-07
  Last RMS-Density change    ...    1.0441e-07  Tolerance :   5.0000e-09
  Last DIIS Error            ...    2.8675e-03  Tolerance :   5.0000e-07
  Last Orbital Gradient      ...    1.3820e-06  Tolerance :   1.0000e-05
  Last Orbital Rotation      ...    2.3289e-06  Tolerance :   1.0000e-05


----------------------
UHF SPIN CONTAMINATION
----------------------

Warning: in a DFT calculation there is little theoretical justification to 
         calculate <S**2> as in Hartree-Fock theory. We will do it anyways
         but you should keep in mind that the values have only limited relevance

Expectation value of <S**2>     :     0.941268
Ideal value S*(S+1) for S=0.0   :     0.000000
Deviation                       :     0.941268


                    ********************************
                    * MULLIKEN POPULATION ANALYSIS *
                    ********************************

--------------------------------------------
MULLIKEN ATOMIC CHARGES AND SPIN POPULATIONS
--------------------------------------------
   0 C :   -0.163532    1.101569
   1 H :    0.054488   -0.046234
   2 H :    0.054522   -0.046230
   3 H :    0.054522   -0.046230
   4 C :   -0.163527   -1.101570
   5 H :    0.054487    0.046234
   6 H :    0.054520    0.046230
   7 H :    0.054520    0.046230
Sum of atomic charges         :   -0.0000000
Sum of atomic spin populations:    0.0000000

-----------------------------------------------------
MULLIKEN REDUCED ORBITAL CHARGES AND SPIN POPULATIONS
-----------------------------------------------------
CHARGE
  0 C s       :     3.199155  s :     3.199155
      pz      :     0.983004  p :     2.949873
      px      :     0.983509
      py      :     0.983360
      dz2     :     0.001651  d :     0.014504
      dxz     :     0.000001
      dyz     :     0.000001
      dx2y2   :     0.006425
      dxy     :     0.006426

  1 H s       :     0.921052  s :     0.921052
      pz      :     0.005323  p :     0.024460
      px      :     0.014564
      py      :     0.004574

  2 H s       :     0.921019  s :     0.921019
      pz      :     0.005322  p :     0.024459
      px      :     0.007072
      py      :     0.012065

  3 H s       :     0.921019  s :     0.921019
      pz      :     0.005322  p :     0.024459
      px      :     0.007072
      py      :     0.012065

  4 C s       :     3.199154  s :     3.199154
      pz      :     0.983003  p :     2.949869
      px      :     0.983508
      py      :     0.983359
      dz2     :     0.001651  d :     0.014504
      dxz     :     0.000001
      dyz     :     0.000001
      dx2y2   :     0.006425
      dxy     :     0.006426

  5 H s       :     0.921053  s :     0.921053
      pz      :     0.005323  p :     0.024460
      px      :     0.014564
      py      :     0.004574

  6 H s       :     0.921021  s :     0.921021
      pz      :     0.005322  p :     0.024459
      px      :     0.007072
      py      :     0.012065

  7 H s       :     0.921021  s :     0.921021
      pz      :     0.005322  p :     0.024459
      px      :     0.007072
      py      :     0.012065


SPIN
  0 C s       :     0.081423  s :     0.081423
      pz      :     0.949100  p :     1.022850
      px      :     0.036870
      py      :     0.036880
      dz2     :    -0.002645  d :    -0.002704
      dxz     :     0.000000
      dyz     :     0.000000
      dx2y2   :    -0.000030
      dxy     :    -0.000029

  1 H s       :    -0.051602  s :    -0.051602
      pz      :     0.005139  p :     0.005368
      px      :     0.000386
      py      :    -0.000157

  2 H s       :    -0.051597  s :    -0.051597
      pz      :     0.005139  p :     0.005367
      px      :    -0.000022
      py      :     0.000250

  3 H s       :    -0.051597  s :    -0.051597
      pz      :     0.005139  p :     0.005367
      px      :    -0.000022
      py      :     0.000250

  4 C s       :    -0.081424  s :    -0.081424
      pz      :    -0.949100  p :    -1.022850
      px      :    -0.036870
      py      :    -0.036880
      dz2     :     0.002645  d :     0.002704
      dxz     :    -0.000000
      dyz     :    -0.000000
      dx2y2   :     0.000030
      dxy     :     0.000029

  5 H s       :     0.051602  s :     0.051602
      pz      :    -0.005139  p :    -0.005368
      px      :    -0.000386
      py      :     0.000157

  6 H s       :     0.051597  s :     0.051597
      pz      :    -0.005139  p :    -0.005367
      px      :     0.000022
      py      :    -0.000250

  7 H s       :     0.051597  s :     0.051597
      pz      :    -0.005139  p :    -0.005367
      px      :     0.000022
      py      :    -0.000250



                     *******************************
                     * LOEWDIN POPULATION ANALYSIS *
                     *******************************

-------------------------------------------
LOEWDIN ATOMIC CHARGES AND SPIN POPULATIONS
-------------------------------------------
   0 C :   -0.046660    0.962722
   1 H :    0.015565   -0.002157
   2 H :    0.015547   -0.002149
   3 H :    0.015547   -0.002149
   4 C :   -0.046657   -0.962722
   5 H :    0.015564    0.002157
   6 H :    0.015547    0.002149
   7 H :    0.015547    0.002149

----------------------------------------------------
LOEWDIN REDUCED ORBITAL CHARGES AND SPIN POPULATIONS
----------------------------------------------------
CHARGE
  0 C s       :     2.945718  s :     2.945718
      pz      :     0.939969  p :     3.064978
      px      :     1.062520
      py      :     1.062489
      dz2     :     0.003236  d :     0.035965
      dxz     :     0.000001
      dyz     :     0.000001
      dx2y2   :     0.016361
      dxy     :     0.016367

  1 H s       :     0.910209  s :     0.910209
      pz      :     0.019292  p :     0.074226
      px      :     0.044111
      py      :     0.010823

  2 H s       :     0.910216  s :     0.910216
      pz      :     0.019294  p :     0.074237
      px      :     0.019149
      py      :     0.035793

  3 H s       :     0.910216  s :     0.910216
      pz      :     0.019294  p :     0.074237
      px      :     0.019149
      py      :     0.035793

  4 C s       :     2.945717  s :     2.945717
      pz      :     0.939968  p :     3.064975
      px      :     1.062519
      py      :     1.062489
      dz2     :     0.003236  d :     0.035965
      dxz     :     0.000001
      dyz     :     0.000001
      dx2y2   :     0.016361
      dxy     :     0.016367

  5 H s       :     0.910210  s :     0.910210
      pz      :     0.019292  p :     0.074226
      px      :     0.044111
      py      :     0.010823

  6 H s       :     0.910217  s :     0.910217
      pz      :     0.019294  p :     0.074237
      px      :     0.019149
      py      :     0.035793

  7 H s       :     0.910217  s :     0.910217
      pz      :     0.019294  p :     0.074237
      px      :     0.019149
      py      :     0.035793


SPIN
  0 C s       :     0.029830  s :     0.029830
      pz      :     0.901970  p :     0.936970
      px      :     0.017499
      py      :     0.017501
      dz2     :    -0.002295  d :    -0.004078
      dxz     :     0.000000
      dyz     :     0.000000
      dx2y2   :    -0.000891
      dxy     :    -0.000891

  1 H s       :    -0.024715  s :    -0.024715
      pz      :     0.018906  p :     0.022558
      px      :     0.003290
      py      :     0.000362

  2 H s       :    -0.024709  s :    -0.024709
      pz      :     0.018908  p :     0.022560
      px      :     0.001094
      py      :     0.002557

  3 H s       :    -0.024709  s :    -0.024709
      pz      :     0.018908  p :     0.022560
      px      :     0.001094
      py      :     0.002557

  4 C s       :    -0.029830  s :    -0.029830
      pz      :    -0.901970  p :    -0.936970
      px      :    -0.017499
      py      :    -0.017501
      dz2     :     0.002295  d :     0.004078
      dxz     :    -0.000000
      dyz     :    -0.000000
      dx2y2   :     0.000891
      dxy     :     0.000891

  5 H s       :     0.024715  s :     0.024715
      pz      :    -0.018906  p :    -0.022558
      px      :    -0.003290
      py      :    -0.000362

  6 H s       :     0.024709  s :     0.024709
      pz      :    -0.018909  p :    -0.022560
      px      :    -0.001094
      py      :    -0.002557

  7 H s       :     0.024709  s :     0.024709
      pz      :    -0.018909  p :    -0.022560
      px      :    -0.001094
      py      :    -0.002557



                      *****************************
                      * MAYER POPULATION ANALYSIS *
                      *****************************

  NA   - Mulliken gross atomic population
  ZA   - Total nuclear charge
  QA   - Mulliken gross atomic charge
  VA   - Mayer's total valence
  BVA  - Mayer's bonded valence
  FA   - Mayer's free valence

  ATOM       NA         ZA         QA         VA         BVA        FA
  0 C      6.1635     6.0000    -0.1635     3.9605     3.0477     0.9127
  1 H      0.9455     1.0000     0.0545     0.9880     0.9854     0.0026
  2 H      0.9455     1.0000     0.0545     0.9880     0.9854     0.0026
  3 H      0.9455     1.0000     0.0545     0.9880     0.9854     0.0026
  4 C      6.1635     6.0000    -0.1635     3.9605     3.0477     0.9127
  5 H      0.9455     1.0000     0.0545     0.9880     0.9854     0.0026
  6 H      0.9455     1.0000     0.0545     0.9880     0.9854     0.0026
  7 H      0.9455     1.0000     0.0545     0.9880     0.9854     0.0026

  Mayer bond orders larger than 0.100000
B(  0-C ,  1-H ) :   0.9931 B(  0-C ,  2-H ) :   0.9930 B(  0-C ,  3-H ) :   0.9930 
B(  4-C ,  5-H ) :   0.9931 B(  4-C ,  6-H ) :   0.9930 B(  4-C ,  7-H ) :   0.9930 



--------------------------
UHF CORRESPONDING ORBITALS
--------------------------
Transforming orbitals                         ... VA transformation done
VB transformation done
T transformation done
R transformation done
done
Choosing virtual orbitals in the orth. comp.  ... done
                ***UHF Corresponding Orbitals were saved in d3h-singulete.uco***


Now the overlap between the corresponding orbitals will be printed
Since there are an equal number of alpha and beta orbitals each orbital in the
alpha set is matched by an orbital in the beta set. If all overlaps are close to
one you have a normal UHF solution with some spin polarization
If you have a broken symmetry solution there will be overlaps that are
significantly smaller than one. These orbitals are the non-orthogonal magnetic
orbitals of the broken symmetry UHF solution.

----------------------
 Orbital    Overlap(*)
----------------------
   0:      1.00000
   1:      1.00000
   2:      0.99975
   3:      0.99975
   4:      0.99974
   5:      0.99974
   6:      0.99884
   7:      0.99881
   8:      0.25585
(*)  the overlap is weighted by the product of occupation numbers
     NOTE: the whole analysis is not valid for fractional occupations

------------------------------------------
BROKEN SYMMETRY MAGNETIC COUPLING ANALYSIS
------------------------------------------

S(High-Spin)      =   1.0    
<S**2>(High-Spin) =   2.0073    
<S**2>(BrokenSym) =   0.9413    
E(High-Spin)      =   -79.552207 Eh
E(BrokenSym)      =   -79.556901 Eh
E(High-Spin)-E(BrokenSym)= 0.1277 eV   1030.051 cm**-1 (ANTIFERROMAGNETIC coupling)

          ---------------------------------------------------------
          | Spin-Hamiltonian Analysis based on H(HDvV)= -2J*SA*SB |
    -------                                                       -----------
    | J(1) =   -1030.05 cm**-1    (from -(E[HS]-E[BS])/Smax**2)             |
    | J(2) =    -515.03 cm**-1    (from -(E[HS]-E[BS])/(Smax*(Smax+1))      |
    | J(3) =    -966.27 cm**-1    (from -(E[HS]-E[BS])/(<S**2>HS-<S**2>BS)) |
    -------------------------------------------------------------------------

  J(1): (a) A.P. Ginsberg J. Am. Chem. Soc. 102 (1980), 111
        (b) L. Noodleman J. Chem. Phys. 74 (1981), 5737
        (c) L. Noodleman E.R. Davidson Chem. Phys. 109 (1986), 131
  J(2)  (d) A. Bencini D. Gatteschi J. Am. Chem. Soc. 108 (1980), 5763
  J(3)  (e) K. Yamaguchi Y. Takahara T. Fueno in: V.H. Smith (Ed.)
            Applied Quantum Chemistry. Reidel, Dordrecht (1986), pp 155
        (f) T.Soda et al. Chem. Phys. Lett., 319, (2000), 223


----------------
TOTAL SCF ENERGY
----------------

Total Energy       :        -79.55690051884007 Eh           -2164.85332 eV

Components:
Nuclear Repulsion  :         31.18882345485604 Eh             848.69103 eV
Electronic Energy  :       -110.74575928180001 Eh           -3013.54532 eV
One Electron Energy:       -166.93188893232943 Eh           -4542.44763 eV
Two Electron Energy:         56.18612965052942 Eh            1528.90232 eV

Virial components:
Potential Energy   :       -158.09097200678573 Eh           -4301.87405 eV
Kinetic Energy     :         78.53407148794567 Eh            2137.02073 eV
Virial Ratio       :          2.01302401634750

DFT components:
N(Alpha)           :        9.000003767418 electrons
N(Beta)            :        9.000003767465 electrons
N(Total)           :       18.000007534883 electrons
E(X)               :       -9.799910362950 Eh       
E(C)               :       -0.621498521441 Eh       
E(XC)              :      -10.421408884391 Eh       

---------------
SCF CONVERGENCE
---------------

  Last Energy change         ...   -3.1619e-10  Tolerance :   1.0000e-08
  Last MAX-Density change    ...    2.8181e-06  Tolerance :   1.0000e-07
  Last RMS-Density change    ...    1.0441e-07  Tolerance :   5.0000e-09
  Last DIIS Error            ...    2.8675e-03  Tolerance :   5.0000e-07
  Last Orbital Gradient      ...    1.3820e-06  Tolerance :   1.0000e-05
  Last Orbital Rotation      ...    2.3289e-06  Tolerance :   1.0000e-05


----------------------
UHF SPIN CONTAMINATION
----------------------

Warning: in a DFT calculation there is little theoretical justification to 
         calculate <S**2> as in Hartree-Fock theory. We will do it anyways
         but you should keep in mind that the values have only limited relevance

Expectation value of <S**2>     :     0.941268
Ideal value S*(S+1) for S=0.0   :     0.000000
Deviation                       :     0.941268

----------------
ORBITAL ENERGIES
----------------
                 SPIN UP ORBITALS
  NO   OCC          E(Eh)            E(eV) 
   0   1.0000     -10.193872      -277.3894 
   1   1.0000     -10.179636      -277.0020 
   2   1.0000      -0.670668       -18.2498 
   3   1.0000      -0.631824       -17.1928 
   4   1.0000      -0.414052       -11.2669 
   5   1.0000      -0.414035       -11.2665 
   6   1.0000      -0.403601       -10.9825 
   7   1.0000      -0.403582       -10.9820 
   8   1.0000      -0.225619        -6.1394 
   9   0.0000      -0.053954        -1.4682 
  10   0.0000       0.072297         1.9673 
  11   0.0000       0.106144         2.8883 
  12   0.0000       0.135051         3.6749 
  13   0.0000       0.135067         3.6753 
  14   0.0000       0.166059         4.5187 
  15   0.0000       0.166074         4.5191 
  16   0.0000       0.403726        10.9860 
  17   0.0000       0.426023        11.5927 
  18   0.0000       0.426060        11.5937 
  19   0.0000       0.474287        12.9060 

                 SPIN DOWN ORBITALS
  NO   OCC          E(Eh)            E(eV) 
   0   1.0000     -10.193875      -277.3894 
   1   1.0000     -10.179632      -277.0019 
   2   1.0000      -0.670670       -18.2498 
   3   1.0000      -0.631823       -17.1928 
   4   1.0000      -0.414053       -11.2670 
   5   1.0000      -0.414036       -11.2665 
   6   1.0000      -0.403599       -10.9825 
   7   1.0000      -0.403581       -10.9820 
   8   1.0000      -0.225621        -6.1394 
   9   0.0000      -0.053953        -1.4681 
  10   0.0000       0.072297         1.9673 
  11   0.0000       0.106144         2.8883 
  12   0.0000       0.135051         3.6749 
  13   0.0000       0.135067         3.6753 
  14   0.0000       0.166059         4.5187 
  15   0.0000       0.166074         4.5191 
  16   0.0000       0.403726        10.9860 
  17   0.0000       0.426023        11.5927 
  18   0.0000       0.426060        11.5937 
  19   0.0000       0.474287        12.9060 
*Only the first 10 virtual orbitals were printed.

                    ********************************
                    * MULLIKEN POPULATION ANALYSIS *
                    ********************************

--------------------------------------------
MULLIKEN ATOMIC CHARGES AND SPIN POPULATIONS
--------------------------------------------
   0 C :   -0.163532    1.101569
   1 H :    0.054488   -0.046234
   2 H :    0.054522   -0.046230
   3 H :    0.054522   -0.046230
   4 C :   -0.163527   -1.101570
   5 H :    0.054487    0.046234
   6 H :    0.054520    0.046230
   7 H :    0.054520    0.046230
Sum of atomic charges         :   -0.0000000
Sum of atomic spin populations:    0.0000000

-----------------------------------------------------
MULLIKEN REDUCED ORBITAL CHARGES AND SPIN POPULATIONS
-----------------------------------------------------
CHARGE
  0 C s       :     3.199155  s :     3.199155
      pz      :     0.983004  p :     2.949873
      px      :     0.983509
      py      :     0.983360
      dz2     :     0.001651  d :     0.014504
      dxz     :     0.000001
      dyz     :     0.000001
      dx2y2   :     0.006425
      dxy     :     0.006426

  1 H s       :     0.921052  s :     0.921052
      pz      :     0.005323  p :     0.024460
      px      :     0.014564
      py      :     0.004574

  2 H s       :     0.921019  s :     0.921019
      pz      :     0.005322  p :     0.024459
      px      :     0.007072
      py      :     0.012065

  3 H s       :     0.921019  s :     0.921019
      pz      :     0.005322  p :     0.024459
      px      :     0.007072
      py      :     0.012065

  4 C s       :     3.199154  s :     3.199154
      pz      :     0.983003  p :     2.949869
      px      :     0.983508
      py      :     0.983359
      dz2     :     0.001651  d :     0.014504
      dxz     :     0.000001
      dyz     :     0.000001
      dx2y2   :     0.006425
      dxy     :     0.006426

  5 H s       :     0.921053  s :     0.921053
      pz      :     0.005323  p :     0.024460
      px      :     0.014564
      py      :     0.004574

  6 H s       :     0.921021  s :     0.921021
      pz      :     0.005322  p :     0.024459
      px      :     0.007072
      py      :     0.012065

  7 H s       :     0.921021  s :     0.921021
      pz      :     0.005322  p :     0.024459
      px      :     0.007072
      py      :     0.012065


SPIN
  0 C s       :     0.081423  s :     0.081423
      pz      :     0.949100  p :     1.022850
      px      :     0.036870
      py      :     0.036880
      dz2     :    -0.002645  d :    -0.002704
      dxz     :     0.000000
      dyz     :     0.000000
      dx2y2   :    -0.000030
      dxy     :    -0.000029

  1 H s       :    -0.051602  s :    -0.051602
      pz      :     0.005139  p :     0.005368
      px      :     0.000386
      py      :    -0.000157

  2 H s       :    -0.051597  s :    -0.051597
      pz      :     0.005139  p :     0.005367
      px      :    -0.000022
      py      :     0.000250

  3 H s       :    -0.051597  s :    -0.051597
      pz      :     0.005139  p :     0.005367
      px      :    -0.000022
      py      :     0.000250

  4 C s       :    -0.081424  s :    -0.081424
      pz      :    -0.949100  p :    -1.022850
      px      :    -0.036870
      py      :    -0.036880
      dz2     :     0.002645  d :     0.002704
      dxz     :    -0.000000
      dyz     :    -0.000000
      dx2y2   :     0.000030
      dxy     :     0.000029

  5 H s       :     0.051602  s :     0.051602
      pz      :    -0.005139  p :    -0.005368
      px      :    -0.000386
      py      :     0.000157

  6 H s       :     0.051597  s :     0.051597
      pz      :    -0.005139  p :    -0.005367
      px      :     0.000022
      py      :    -0.000250

  7 H s       :     0.051597  s :     0.051597
      pz      :    -0.005139  p :    -0.005367
      px      :     0.000022
      py      :    -0.000250



                     *******************************
                     * LOEWDIN POPULATION ANALYSIS *
                     *******************************

-------------------------------------------
LOEWDIN ATOMIC CHARGES AND SPIN POPULATIONS
-------------------------------------------
   0 C :   -0.046660    0.962722
   1 H :    0.015565   -0.002157
   2 H :    0.015547   -0.002149
   3 H :    0.015547   -0.002149
   4 C :   -0.046657   -0.962722
   5 H :    0.015564    0.002157
   6 H :    0.015547    0.002149
   7 H :    0.015547    0.002149

----------------------------------------------------
LOEWDIN REDUCED ORBITAL CHARGES AND SPIN POPULATIONS
----------------------------------------------------
CHARGE
  0 C s       :     2.945718  s :     2.945718
      pz      :     0.939969  p :     3.064978
      px      :     1.062520
      py      :     1.062489
      dz2     :     0.003236  d :     0.035965
      dxz     :     0.000001
      dyz     :     0.000001
      dx2y2   :     0.016361
      dxy     :     0.016367

  1 H s       :     0.910209  s :     0.910209
      pz      :     0.019292  p :     0.074226
      px      :     0.044111
      py      :     0.010823

  2 H s       :     0.910216  s :     0.910216
      pz      :     0.019294  p :     0.074237
      px      :     0.019149
      py      :     0.035793

  3 H s       :     0.910216  s :     0.910216
      pz      :     0.019294  p :     0.074237
      px      :     0.019149
      py      :     0.035793

  4 C s       :     2.945717  s :     2.945717
      pz      :     0.939968  p :     3.064975
      px      :     1.062519
      py      :     1.062489
      dz2     :     0.003236  d :     0.035965
      dxz     :     0.000001
      dyz     :     0.000001
      dx2y2   :     0.016361
      dxy     :     0.016367

  5 H s       :     0.910210  s :     0.910210
      pz      :     0.019292  p :     0.074226
      px      :     0.044111
      py      :     0.010823

  6 H s       :     0.910217  s :     0.910217
      pz      :     0.019294  p :     0.074237
      px      :     0.019149
      py      :     0.035793

  7 H s       :     0.910217  s :     0.910217
      pz      :     0.019294  p :     0.074237
      px      :     0.019149
      py      :     0.035793


SPIN
  0 C s       :     0.029830  s :     0.029830
      pz      :     0.901970  p :     0.936970
      px      :     0.017499
      py      :     0.017501
      dz2     :    -0.002295  d :    -0.004078
      dxz     :     0.000000
      dyz     :     0.000000
      dx2y2   :    -0.000891
      dxy     :    -0.000891

  1 H s       :    -0.024715  s :    -0.024715
      pz      :     0.018906  p :     0.022558
      px      :     0.003290
      py      :     0.000362

  2 H s       :    -0.024709  s :    -0.024709
      pz      :     0.018908  p :     0.022560
      px      :     0.001094
      py      :     0.002557

  3 H s       :    -0.024709  s :    -0.024709
      pz      :     0.018908  p :     0.022560
      px      :     0.001094
      py      :     0.002557

  4 C s       :    -0.029830  s :    -0.029830
      pz      :    -0.901970  p :    -0.936970
      px      :    -0.017499
      py      :    -0.017501
      dz2     :     0.002295  d :     0.004078
      dxz     :    -0.000000
      dyz     :    -0.000000
      dx2y2   :     0.000891
      dxy     :     0.000891

  5 H s       :     0.024715  s :     0.024715
      pz      :    -0.018906  p :    -0.022558
      px      :    -0.003290
      py      :    -0.000362

  6 H s       :     0.024709  s :     0.024709
      pz      :    -0.018909  p :    -0.022560
      px      :    -0.001094
      py      :    -0.002557

  7 H s       :     0.024709  s :     0.024709
      pz      :    -0.018909  p :    -0.022560
      px      :    -0.001094
      py      :    -0.002557



                      *****************************
                      * MAYER POPULATION ANALYSIS *
                      *****************************

  NA   - Mulliken gross atomic population
  ZA   - Total nuclear charge
  QA   - Mulliken gross atomic charge
  VA   - Mayer's total valence
  BVA  - Mayer's bonded valence
  FA   - Mayer's free valence

  ATOM       NA         ZA         QA         VA         BVA        FA
  0 C      6.1635     6.0000    -0.1635     3.9605     3.0477     0.9127
  1 H      0.9455     1.0000     0.0545     0.9880     0.9854     0.0026
  2 H      0.9455     1.0000     0.0545     0.9880     0.9854     0.0026
  3 H      0.9455     1.0000     0.0545     0.9880     0.9854     0.0026
  4 C      6.1635     6.0000    -0.1635     3.9605     3.0477     0.9127
  5 H      0.9455     1.0000     0.0545     0.9880     0.9854     0.0026
  6 H      0.9455     1.0000     0.0545     0.9880     0.9854     0.0026
  7 H      0.9455     1.0000     0.0545     0.9880     0.9854     0.0026

  Mayer bond orders larger than 0.100000
B(  0-C ,  1-H ) :   0.9931 B(  0-C ,  2-H ) :   0.9930 B(  0-C ,  3-H ) :   0.9930 
B(  4-C ,  5-H ) :   0.9931 B(  4-C ,  6-H ) :   0.9930 B(  4-C ,  7-H ) :   0.9930 


-------
TIMINGS
-------

Total SCF time: 0 days 0 hours 0 min 1 sec 

Total time                  ....       1.693 sec
Sum of individual times     ....       1.560 sec  ( 92.1%)

Fock matrix formation       ....       1.544 sec  ( 91.2%)
  Startup                   ....       0.001 sec  (  0.0% of F)
  Split-RI-J                ....       0.065 sec  (  4.2% of F)
  Chain of spheres X        ....       1.102 sec  ( 71.4% of F)
  XC integration            ....       0.479 sec  ( 31.0% of F)
    Basis function eval.    ....       0.170 sec  ( 35.5% of XC)
    Density eval.           ....       0.092 sec  ( 19.2% of XC)
    XC-Functional eval.     ....       0.084 sec  ( 17.5% of XC)
    XC-Potential eval.      ....       0.090 sec  ( 18.8% of XC)
Diagonalization             ....       0.000 sec  (  0.0%)
Density matrix formation    ....       0.003 sec  (  0.1%)
Total Energy calculation    ....       0.001 sec  (  0.0%)
Population analysis         ....       0.003 sec  (  0.2%)
Orbital Transformation      ....       0.003 sec  (  0.1%)
Orbital Orthonormalization  ....       0.000 sec  (  0.0%)
DIIS solution               ....       0.001 sec  (  0.0%)
SOSCF solution              ....       0.007 sec  (  0.4%)
Finished LeanSCF after   2.8 sec

Maximum memory used throughout the entire LEANSCF-calculation: 7.5 MB

-------------------------   --------------------
FINAL SINGLE POINT ENERGY       -79.556900518840
-------------------------   --------------------


------------------------------------------------------------------------------
                              ORCA PROPERTY CALCULATIONS
------------------------------------------------------------------------------

GBWName                                 ... d3h-singulete.gbw
Number of atoms                         ...      8
Number of basis functions               ...     58
Max core memory                         ...   4096 MB

Electric properties:
Dipole moment                           ... YES
Quadrupole moment                       ...  NO
Static polarizability (Dipole/Dipole)   ...  NO
Static polarizability (Dipole/Quad.)    ...  NO
Static polarizability (Quad./Quad.)     ...  NO
Static polarizability (Velocity)        ...  NO
Static hyperpolarizability              ...  NO

Atomic electric properties:
Dipole moment                           ...  NO
Quadrupole moment                       ...  NO
Static polarizability                   ...  NO

Choice of electric origin               ... Center of mass
Position of electric origin             ...     0.000000    -0.000000     0.000000

General magnetic properties:
Magnetizability                         ...  NO

EPR properties:
g-Tensor (aka g-matrix)                 ...  NO
Zero-Field splitting spin-orbit         ...  NO
Zero-field splitting spin-spin          ...  NO
Hyperfine couplings                     ...  NO (   0 nuclei)
Quadrupole couplings                    ...  NO (   0 nuclei)
Contact density                         ...  NO (   0 nuclei)

NMR properties:
Chemical shifts                         ...  NO (   0 nuclei)
Spin-rotation constants                 ...  NO (   0 nuclei)
Spin-spin couplings                     ...  NO (   0 nuclei,    0 pairs)

Choice of magnetic origin               ... GIAO
Position of magnetic origin             ...     0.000000     0.000000     0.000000

Properties with geometric perturbations:
SCF Hessian                             ...  NO
IR spectrum                             ...  NO
VCD spectrum                            ...  NO
X-ray spectroscopy properties:
SCF XES/XAS/RIXS spectra                ...  NO

SCF SOC stabilization energy            ...  NO
Diagonal Born-Oppenheimer correction    ...  NO

-------------
DIPOLE MOMENT
-------------

Method             : SCF
Type of density    : Electron Density
Multiplicity       :   1
Irrep              :   0
Energy             :   -79.5569005188400666 Eh
Basis              : AO
                                X                 Y                 Z
Electronic contribution:      0.000152770      -0.000000014       0.000002363
Nuclear contribution   :      0.000000000       0.000000000       0.000000000
                        -----------------------------------------
Total Dipole Moment    :      0.000152770      -0.000000014       0.000002363
                        -----------------------------------------
Magnitude (a.u.)       :      0.000152789
Magnitude (Debye)      :      0.000388358



--------------------
Rotational spectrum 
--------------------
 
Rotational constants in cm-1:             2.378825             0.176275             0.176274 
Rotational constants in MHz :         71315.383142          5284.602327          5284.572042 

Dipole components along the rotational axes: 
x,y,z [a.u.] :     0.000002    -0.000153     0.000000 
x,y,z [Debye]:     0.000006    -0.000388     0.000000 

 

Dipole moment calculation done in   0.0 sec 

Maximum memory used throughout the entire PROP-calculation: 4.1 MB

--------------------------------
SUGGESTED CITATIONS FOR THIS RUN
--------------------------------

Below you find a list of papers that are relevant to this ORCA run
We neither can nor want to force you to cite these papers, but we appreciate if you do
You receive ORCA, which is the product of decades of hard work by many enthusiastic individuals, for free
The only thing we kindly ask in return is that you cite our papers,
We deeply appreciate it, if you show your appreciation for ORCA by not just citing the generic ORCA reference.

Please note that relegating all ORCA citations to the supporting information does *not* help us.
SI sections are not indexed - citations you put there will not count into any citation statistics
But we need these citations in order to attract the funding resources that allow us to do what we are doing

Therefore, if you are a happy ORCA user, please consider citing a few of the papers listed below in the main body of your paper

In addition to the list printed below, the program has created the file d3h-singulete.bibtex that contains the list in bibtex format
You can import this file easily into all common literature databanks and citation aid programs


List of essential papers. We consider these as the minimum necessary citations

  1. Neese, F.
     Software update: the ORCA program system, version 6.0
     WIRES Comput. Molec. Sci. 2025 15(1), e70019
     doi.org/10.1002/wcms.7019

List of papers to cite with high priority. The work reported in these papers was absolutely
necessary for this run to complete.
Our perspective: the developers of density functionals and basis sets usually get cited in chemistry papers
Good! But without the algorithms to do something with them, the functionals or basis sets would not do anything.
Hence, in our opinion, the algorithm design and method developments papers are equally worthy of getting cited

  1. Neese, F.
     An improvement of the resolution of the identity approximation for the formation of the Coulomb matrix
     J. Comp. Chem. 2003 24(14), 1740-1747
     doi.org/10.1002/jcc.10318
  2. Neese, F.
     Definition of corresponding orbitals and the diradical character in broken symmetry DFT calculations on spin coupled systems
     J. Phys. Chem. Solids 2004 65(4), 781-785
     doi.org/10.1016/j.jpcs.2003.11.015
  3. Neese, F.; Wennmohs, F.; Hansen, A.; Becker, U.
     Efficient, approximate and parallel Hartree-Fock and hybrid DFT calculations. A 'chain-of-spheres' algorithm for the Hartree-Fock exchange
     Chem. Phys. 2009 356(1-3), 98-109
     doi.org/10.1016/j.chemphys.2008.10.036
  4. Helmich-Paris, B.; de Souza, B.; Neese, F.; Izsák, R.
     An improved chain of spheres for exchange algorithm
     J. Chem. Phys. 2021 155(10), 104109
     doi.org/10.1063/5.0058766
  5. Neese, F.
     The SHARK Integral Generation and Digestion System
     J. Comp. Chem. 2022 44(3), 381
     doi.org/10.1002/jcc.26942

List of suggested additional citations. These are papers that are important in the 'surrounding' of 
of this run, or papers that preceded the highly important papers. If you like your results we are grateful for a citation.

  1. Izsak, R.; Neese, F.
     An overlap fitted chain of spheres exchange method
     J. Chem. Phys. 2011 135 , 144105
     doi.org/10.1063/1.3646921
  2. Izsak, R.; Hansen, A.; Neese, F.
     The resolution of identity and chain of spheres approximations for the LPNO-CCSD singles Fock term
     Molec. Phys. 2012 110 , 2413-2417
     doi.org/10.1080/00268976.2012.687466
  3. Neese, F.
     The ORCA program system
     WIRES Comput. Molec. Sci. 2012 2(1), 73-78
     doi.org/10.1002/wcms.81
  4. Izsak, R.; Neese, F.; Klopper, W.
     Robust fitting techniques in the chain of spheres approximation to the Fock exchange: The role of the complementary space
     J. Chem. Phys. 2013 139 , 
     doi.org/10.1063/1.4819264
  5. Neese, F.
     Software update: the ORCA program system, version 4.0
     WIRES Comput. Molec. Sci. 2018 8(1), 1-6
     doi.org/10.1002/wcms.1327
  6. Neese, F.; Wennmohs, F.; Becker, U.; Riplinger, C.
     The ORCA quantum chemistry program package
     J. Chem. Phys. 2020 152(22), 224108
     doi.org/10.1063/5.0004608
  7. Neese, F.
     Software update: The ORCA program system—Version 5.0
     WIRES Comput. Molec. Sci. 2022 12(1), e1606
     doi.org/10.1002/wcms.1606

List of optional additional citations

  1. Neese, F.
     Approximate second-order SCF convergence for spin unrestricted wavefunctions
     Chem. Phys. Lett. 2000 325(1-3), 93-98
     doi.org/10.1016/s0009-2614(00)00662-x

Timings for individual modules:

Sum of individual times          ...        3.117 sec (=   0.052 min)
Startup calculation              ...        0.250 sec (=   0.004 min)   8.0 %
SCF iterations                   ...        2.818 sec (=   0.047 min)  90.4 %
Property calculations            ...        0.050 sec (=   0.001 min)   1.6 %
                             ****ORCA TERMINATED NORMALLY****
TOTAL RUN TIME: 0 days 0 hours 0 minutes 3 seconds 257 msec
