
                                 *****************
                                 * O   R   C   A *
                                 *****************

                                            #,                                       
                                            ###                                      
                                            ####                                     
                                            #####                                    
                                            ######                                   
                                           ########,                                 
                                     ,,################,,,,,                         
                               ,,#################################,,                 
                          ,,##########################################,,             
                       ,#########################################, ''#####,          
                    ,#############################################,,   '####,        
                  ,##################################################,,,,####,       
                ,###########''''           ''''###############################       
              ,#####''   ,,,,##########,,,,          '''####'''          '####       
            ,##' ,,,,###########################,,,                        '##       
           ' ,,###''''                  '''############,,,                           
         ,,##''                                '''############,,,,        ,,,,,,###''
      ,#''                                            '''#######################'''  
     '                                                          ''''####''''         
             ,#######,   #######,   ,#######,      ##                                
            ,#'     '#,  ##    ##  ,#'     '#,    #''#        ,####,    ,#,          
            ##       ##  ##   ,#'  ##            #'  '#       #'       ,# #          
            ##       ##  #######   ##           ,######,      #####,      #          
            '#,     ,#'  ##    ##  '#,     ,#' ,#      #,     #,   #      #          
             '#######'   ##     ##  '#######'  #'      '#     '####' #    #          



                #########################################################
                #                        -***-                          #
                #          Department of theory and spectroscopy        #
                #                                                       #
                #                      Frank Neese                      #
                #                                                       #
                #     Directorship, Architecture, Infrastructure        #
                #                    SHARK, DRIVERS                     #
                #        Core code/Algorithms in most modules           #
                #                                                       #
                #        Max Planck Institute fuer Kohlenforschung      #
                #                Kaiser Wilhelm Platz 1                 #
                #                 D-45470 Muelheim/Ruhr                 #
                #                      Germany                          #
                #                                                       #
                #                  All rights reserved                  #
                #                        -***-                          #
                #########################################################


                         Program Version 6.1.0  -  RELEASE   -
                                (GIT: $679e74b$)
                          ($2025-06-10 18:02:51 +0200$)


 With contributions from (in alphabetic order):
[Max-Planck-Institut fuer Kohlenforschung]                               
  Daniel Aravena         : Magnetic Suceptibility                        
  Michael Atanasov       : Ab Initio Ligand Field Theory (pilot matlab implementation)
  Alexander A. Auer      : GIAO ZORA, VPT2 properties, NMR spectrum      
  Ute Becker             : All parallelization in ORCA, NUMFREQ, NUMCALC 
  Giovanni Bistoni       : ED, misc. LED, open-shell LED, HFLD           
  Dmytro Bykov           : pre 5.0 version of the SCF Hessian            
  Marcos Casanova-Páez   : Triplet and SCS-CIS(D). UHF-(DLPNO)-IP/EA/STEOM-CCSD. UHF-CVS-IP/STEOM-CCSD   
  Vijay G. Chilkuri      : MRCI spin determinant printing, contributions to CSF-ICE 
  Pauline Colinet        : FMM embedding                                 
  Dipayan Datta          : RHF DLPNO-CCSD density                        
  Achintya Kumar Dutta   : EOM-CC, STEOM-CC                              
  Nicolas Foglia         : Exact transition moments, OPA infrastructure, MCD improvements    
  Dmitry Ganyushin       : Spin-Orbit,Spin-Spin,Magnetic field MRCI      
  Miquel Garcia-Rates    : C-PCM and meta-GGA Hessian, CCSD/C-PCM, Gaussian charge scheme 
  Tiago L. C. Gouveia    : GS-ROHF, GS-ROCIS                             
  Yang Guo               : DLPNO-NEVPT2, F12-NEVPT2, CIM, IAO-localization        
  Andreas Hansen         : Spin unrestricted coupled pair/coupled cluster methods 
  Ingolf Harden          : AUTO-CI MPn and infrastructure                
  Benjamin Helmich-Paris : MC-RPA, TRAH-(SCF,CASSCF), AVAS, COSX integrals, SCF dyn. polar., MC-PDFT, srDFT 
  Lee Huntington         : MR-EOM, pCC                                   
  Robert Izsak           : Overlap fitted RIJCOSX, COSX-SCS-MP3, EOM     
  Riya Kayal             : Wick's Theorem for AUTO-CI, AUTO-CI UHF-CCSDT 
  Emily Kempfer          : AUTO-CI RHF CISDT and CCSDT, approximate NEVPT4
  Christian Kollmar      : KDIIS, OOCD, Brueckner-CCSD(T), CCSD density, CASPT2, CASPT2-K, improved NEVPT2 
  Axel Koslowski         : Symmetry handling                             
  Simone Kossmann        : meta-GGA functionals, TD-DFT gradient, OOMP2, (MP2 Hessian; deprecated post 5.0) 
  Lucas Lang             : DCDCAS, Hyperfine gauge corrections, ICE-SOC+SSC
  Marvin Lechner         : AUTO-CI (C++ implementation), FIC-MRCC        
  Spencer Leger          : CASSCF response                               
  Dagmar Lenk            : GEPOL surface, SMD, ORCA-2-JSON               
  Dimitrios Liakos       : Extrapolation schemes; Compound Job, Property file
  Dimitrios Manganas     : Further ROCIS development; embedding schemes. LFT, Crystal Embedding 
  Dimitrios Pantazis     : SARC Basis sets                               
  Anastasios Papadopoulos: AUTO-CI, single reference methods and gradients 
  Taras Petrenko         : pre 6.0 DFT Hessian and TD-DFT gradient,  ECA, NRVS 
  Petra Pikulova         : Analytic Raman intensities                    
  Peter Pinski           : DLPNO-MP2, DLPNO-MP2 Gradient                 
  Shashank Vittal Rao    : ES-AILFT, MagRelax                            
  Christoph Reimann      : Effective Core Potentials                     
  Marius Retegan         : Local ZFS, SOC                                
  Christoph Riplinger    : Optimizer, TS searches, QM/MM, DLPNO-CCSD(T), (RO)-DLPNO pert. Triples 
  Michael Roemelt        : Original ROCIS implementation, recursive CI coupling coefficients
  Masaaki Saitow         : Open-shell DLPNO-CCSD energy and density      
  Barbara Sandhoefer     : DKH picture change effects                    
  Yorick L. A. Schmerwitz: GMF and freeze-and-release deltaSCF, NEB S-IDPP initial path                    
  Kantharuban Sivalingam : CASSCF convergence/infrastructure, NEVPT2, NEVPT3, NEVPT4(SD), FIC-MRCI and CEPA variants
  Bernardo de Souza      : ESD, SOC TD-DFT                               
  Georgi L. Stoychev     : AutoAux, RI-MP2 NMR, DLPNO-MP2 response, X2C  
  Van Anh Tran           : RI-MP2 g-tensors                              
  Willem Van den Heuvel  : Paramagnetic NMR                              
  Zikuan Wang            : NOTCH, Electric field optimization            
  Frank Wennmohs         : Technical directorship and infrastructure     
  Hang Xu                : AUTO-CI-Response properties                   
                                                                         
[FACCTs GmbH]                                                            
  Markus Bursch, Nicolas Foglia, Miquel Garcia-Rates, Ingolf Harden, Hagen Neugebauer, Anastasios Papadopoulos, 
  Christoph Riplinger, Bernardo de Souza, Georgi L. Stoychev                                                    
                                                                 
  APM, various basis sets, CI-OPT, improved COSX, DLPNO-Multilevel,           
  DOCKER, DRACO, updates on ESD, Fragmentator, GOAT, IRC, LR-CPCM, L-BFGS, MBIS, meta-GGA TD-DFT gradient, ML-optimized integration grids, 
  MM, NACMEs, nearIR, NEB, NEB-TS, NL-DFT gradient (VV10), 2- and 3-layer-ONIOM, interface openCOSMO-RS, QMMM,   
  Crystal-QMMM, RESP, rigid body optimization, SF, symmetry and pop. for TD-DFT, various functionals, SOLVATOR                                   
                                                                         
[Other institutions]                                                     
  V. Asgeirsson          : NEB                                           
  Christoph Bannwarth    : sTDA-DFT, sTD-DFT, PBEh-3c, B97-3c, D3        
  Giovanni Bistoni       : ETS/NOCV, ADLD/ADEX, COVALED                  
  Martin Brehm           : Molecular dynamics                            
  Ronald Cardenas        : ETS/NOCV                                      
  Martina Colucci        : COVALED                                       
  Sebastian Ehlert       : rSCAN, r2SCAN, r2SCAN-3c, D4, dhf basis sets  
  Marvin Friede          : D4 for Fr, Ra, Ac-Lr                          
  Lars Goerigk           : TD-DFT with DH, B97 family of functionals     
  Stefan Grimme          : VdW corrections, initial TS optimization, DFT functionals, gCP, sTDA/sTD-DF 
  Waldemar Hujo          : DFT-NL                                        
  H. Jonsson             : NEB                                           
  Holger Kruse           : gCP                                           
  Marcel Mueller         : wB97X-3c, vDZP basis set                      
  Hagen Neugebauer       : wr2SCAN, Native XTB                           
  Gianluca Regni         : ADLD/ADEX                                     
  Tobias Risthaus        : pre 6.0 range-separated hybrid DFT and stability analysis
  Lukas Wittmann         : regularized MP2, r2SCAN double-hybrids, wr2SCAN        
                                                                         
We gratefully acknowledge several colleagues who have allowed us to      
interface, adapt or use parts of their codes:                            
  Ed Valeev, F. Pavosevic, A. Kumar             : LibInt (2-el integral package), F12 methods 
  Garnet Chan, S. Sharma, J. Yang, R. Olivares  : DMRG                   
  Ulf Ekstrom                                   : XCFun DFT Library      
  Mihaly Kallay                                 : mrcc  (arbitrary order and MRCC methods)
  Frank Weinhold                                : gennbo (NPA and NBO analysis)           
  Simon Mueller                                 : openCOSMO-RS                            
  Christopher J. Cramer and Donald G. Truhlar   : smd solvation model                     
  S Lehtola, MJT Oliveira, MAL Marques          : LibXC Library                           
  Liviu Ungur et al                             : ANISO software                          


 Your calculation uses the libint2 library for the computation of 2-el integrals
 For citations please refer to: http://libint.valeyev.net

 Your ORCA version has been built with support for libXC version: 7.0.0
 For citations please refer to: https://libxc.gitlab.io

 This ORCA versions uses:
   CBLAS   interface :  Fast vector & matrix operations
   LAPACKE interface :  Fast linear algebra routines
   SCALAPACK package :  Parallel linear algebra routines
   Shared memory     :  Shared parallel matrices
   BLAS/LAPACK       :  OpenBLAS 0.3.29  USE64BITINT DYNAMIC_ARCH NO_AFFINITY SkylakeX SINGLE_THREADED
        Core in use  :  SkylakeX
   Copyright (c) 2011-2014, The OpenBLAS Project


  ***********************************
  * Starting time: Wed Dec 10 19:49:29 2025
  * Host name:     Jhonnytest
  * Process ID:    34217
  * Working dir.:  /home/jhonapontee/Group-theory/Proyecto/D3h/D3h-4.5/singulete
  ***********************************

Warning: RI is on but no J-basis has been assigned. Assigning Def2/J (nothing to worry about!)
================================================================================

----- Orbital basis set information -----
Your calculation utilizes the basis: def2-SVP
   F. Weigend and R. Ahlrichs, Phys. Chem. Chem. Phys. 7, 3297 (2005).

----- AuxJ basis set information -----
Your calculation utilizes the auxiliary basis: def2/J
   H-Rn: F. Weigend, Phys. Chem. Chem. Phys. 8, 1057 (2006).
   Fr-Lr: K. Eichkorn, F. Weigend, O. Treutler, R. Ahlrichs; Theor. Chem. Acc. 97, 119 (1997).

================================================================================
                                        WARNINGS
                       Please study these warnings very carefully!
================================================================================


WARNING: MOInp is set but Guess=PModel. MOInp will be ignored!
         To read the initial guess from a file you must also specify
         'MORead' in the simple input or 'Guess MORead' in the %scf block


WARNING: Broken symmetry calculations need fully converged wavefunctions
  ===> : Setting SCFConvForced true
         You can overwrite this default with %scf ConvForced false 


================================================================================
                                       INPUT FILE
================================================================================
NAME = d3h-s.inp
|  1> ! UKS B3LYP def2-SVP TightSCF SP
|  2> ! NoUseSym
|  3> 
|  4> %scf
|  5>   MaxIter 300
|  6>   FlipSpin 0       # flip spin on one radical center (atom index 0 = first C)
|  7>   FinalMs 0.0      # target M_S = 0 (BS state)
|  8> end
|  9> 
| 10> %moinp "d3h.gbw"   # name of your previous HS gbw
| 11> 
| 12> * xyz 0 3
| 13> C   0.00000   0.00000  -2.25000
| 14> H   1.08250   0.00000  -2.25000
| 15> H  -0.54125   0.93740  -2.25000
| 16> H  -0.54125  -0.93740  -2.25000
| 17> 
| 18> C   0.00000   0.00000   2.25000
| 19> H   1.08250   0.00000   2.25000
| 20> H  -0.54125   0.93740   2.25000
| 21> H  -0.54125  -0.93740   2.25000
| 22> *
| 23> 
| 24>                          ****END OF INPUT****
================================================================================

                       ****************************
                       * Single Point Calculation *
                       ****************************

---------------------------------
CARTESIAN COORDINATES (ANGSTROEM)
---------------------------------
  C      0.000000    0.000000   -2.250000
  H      1.082500    0.000000   -2.250000
  H     -0.541250    0.937400   -2.250000
  H     -0.541250   -0.937400   -2.250000
  C      0.000000    0.000000    2.250000
  H      1.082500    0.000000    2.250000
  H     -0.541250    0.937400    2.250000
  H     -0.541250   -0.937400    2.250000

----------------------------
CARTESIAN COORDINATES (A.U.)
----------------------------
  NO LB      ZA    FRAG     MASS         X           Y           Z
   0 C     6.0000    0    12.011    0.000000    0.000000   -4.251884
   1 H     1.0000    0     1.008    2.045629    0.000000   -4.251884
   2 H     1.0000    0     1.008   -1.022814    1.771429   -4.251884
   3 H     1.0000    0     1.008   -1.022814   -1.771429   -4.251884
   4 C     6.0000    0    12.011    0.000000    0.000000    4.251884
   5 H     1.0000    0     1.008    2.045629    0.000000    4.251884
   6 H     1.0000    0     1.008   -1.022814    1.771429    4.251884
   7 H     1.0000    0     1.008   -1.022814   -1.771429    4.251884

--------------------------------
INTERNAL COORDINATES (ANGSTROEM)
--------------------------------
 C      0   0   0     0.000000000000     0.00000000     0.00000000
 H      1   0   0     1.082500000000     0.00000000     0.00000000
 H      1   2   0     1.082437214115   120.00191878     0.00000000
 H      1   2   3     1.082437214115   120.00191878   180.00000000
 C      1   2   3     4.500000000000    90.00000000   270.00000000
 H      5   1   2     1.082500000000    90.00000000     0.00000000
 H      5   1   2     1.082437214115    90.00000000   120.00191878
 H      5   1   2     1.082437214115    90.00000000   239.99808122

---------------------------
INTERNAL COORDINATES (A.U.)
---------------------------
 C      0   0   0     0.000000000000     0.00000000     0.00000000
 H      1   0   0     2.045628539970     0.00000000     0.00000000
 H      1   2   0     2.045509891841   120.00191878     0.00000000
 H      1   2   3     2.045509891841   120.00191878   180.00000000
 C      1   2   3     8.503767602646    90.00000000   270.00000000
 H      5   1   2     2.045628539970    90.00000000     0.00000000
 H      5   1   2     2.045509891841    90.00000000   120.00191878
 H      5   1   2     2.045509891841    90.00000000   239.99808122

---------------------
BASIS SET INFORMATION
---------------------
There are 2 groups of distinct atoms

 Group   1 Type C   : 7s4p1d contracted to 3s2p1d pattern {511/31/1}
 Group   2 Type H   : 4s1p contracted to 2s1p pattern {31/1}

Atom   0C    basis set group =>   1
Atom   1H    basis set group =>   2
Atom   2H    basis set group =>   2
Atom   3H    basis set group =>   2
Atom   4C    basis set group =>   1
Atom   5H    basis set group =>   2
Atom   6H    basis set group =>   2
Atom   7H    basis set group =>   2
---------------------------------
AUXILIARY/J BASIS SET INFORMATION
---------------------------------
There are 2 groups of distinct atoms

 Group   1 Type C   : 12s5p4d2f1g contracted to 6s4p3d1f1g pattern {711111/2111/211/2/1}
 Group   2 Type H   : 5s2p1d contracted to 3s1p1d pattern {311/2/1}

Atom   0C    basis set group =>   1
Atom   1H    basis set group =>   2
Atom   2H    basis set group =>   2
Atom   3H    basis set group =>   2
Atom   4C    basis set group =>   1
Atom   5H    basis set group =>   2
Atom   6H    basis set group =>   2
Atom   7H    basis set group =>   2
------------------------------------------------------------------------------
                             ORCA STARTUP CALCULATIONS
                           -- RI-GTO INTEGRALS CHOSEN --
------------------------------------------------------------------------------
------------------------------------------------------------------------------
                   ___                                                        
                  /   \      - P O W E R E D   B Y -                         
                 /     \                                                     
                 |  |  |   _    _      __       _____    __    __             
                 |  |  |  | |  | |    /  \     |  _  \  |  |  /  |          
                  \  \/   | |  | |   /    \    | | | |  |  | /  /          
                 / \  \   | |__| |  /  /\  \   | |_| |  |  |/  /          
                |  |  |   |  __  | /  /__\  \  |    /   |      \           
                |  |  |   | |  | | |   __   |  |    \   |  |\   \          
                \     /   | |  | | |  |  |  |  | |\  \  |  | \   \       
                 \___/    |_|  |_| |__|  |__|  |_| \__\ |__|  \__/        
                                                                              
                      - O R C A' S   B I G   F R I E N D -                    
                                      &                                       
                       - I N T E G R A L  F E E D E R -                       
                                                                              
 v1 FN, 2020, v2 2021, v3 2022-2024                                           
------------------------------------------------------------------------------


----------------------
SHARK INTEGRAL PACKAGE
----------------------

Number of atoms                             ...      8
Number of basis functions                   ...     58
Number of shells                            ...     30
Maximum angular momentum                    ...      2
Integral batch strategy                     ... SHARK/LIBINT Hybrid
RI-J (if used) integral strategy            ... SPLIT-RIJ (Revised 2003 algorithm where possible)
Printlevel                                  ...      1
Contraction scheme used                     ... SEGMENTED contraction
Prescreening option                         ... SCHWARTZ
   Thresh                                   ... 2.500e-11
   Tcut                                     ... 2.500e-12
   Tpresel                                  ... 2.500e-12 
Coulomb Range Separation                    ... NOT USED
Exchange Range Separation                   ... NOT USED
Multipole approximations                    ... NOT USED
Finite Nucleus Model                        ... NOT USED
CABS basis                                  ... NOT available
Auxiliary Coulomb fitting basis             ... AVAILABLE
   # of basis functions in Aux-J            ...    164
   # of shells in Aux-J                     ...     60
   Maximum angular momentum in Aux-J        ...      4
Auxiliary J/K fitting basis                 ... NOT available
Auxiliary Correlation fitting basis         ... NOT available
Auxiliary 'external' fitting basis          ... NOT available

Checking pre-screening integrals            ... done (  0.0 sec) Dimension = 30
   => SHARK Basis and OBASIS are compatible. Storing Pre-screening
Shell pair information
Shell pair cut-off parameter TPreSel        ...   2.5e-12
Total number of shell pairs                 ...       465
Shell pairs after pre-screening             ...       440
Total number of primitive shell pairs       ...      1529
Primitive shell pairs kept                  ...      1112
          la=0 lb=0:    162 shell pairs
          la=1 lb=0:    172 shell pairs
          la=1 lb=1:     49 shell pairs
          la=2 lb=0:     34 shell pairs
          la=2 lb=1:     20 shell pairs
          la=2 lb=2:      3 shell pairs

Checking whether 4 symmetric matrices of dimension 58 fit in memory
:Max Core in MB      =   4096.00
 MB in use           =      3.74
 MB left             =   4092.26
 MB needed           =      0.05
 Data fit in memory  = YES
Calculating RI/J V-Matrix + Cholesky decomp.... done (  0.0 sec)
Calculating Nuclear repulsion               ... done (  0.0 sec) ENN=     28.646180608680 Eh

Diagonalization of the overlap matrix:
Smallest eigenvalue                        ... 2.175e-02
Time for diagonalization                   ...    0.007 sec
Threshold for overlap eigenvalues          ... 1.000e-07
Number of eigenvalues below threshold      ... 0
Time for construction of square roots      ...    0.002 sec
Total time needed                          ...    0.009 sec

-------------------
DFT GRID GENERATION
-------------------

General Integration Accuracy     IntAcc      ... 4.388
Radial Grid Type                 RadialGrid  ... OptM3 with GC (2021)
Angular Grid (max. ang.)         AngularGrid ... 4 (Lebedev-302)
Angular grid pruning method      GridPruning ... 4 (adaptive)
Weight generation scheme         WeightScheme... mBecke (2022)
Basis function cutoff            BFCut       ... 1.0000e-11
Integration weight cutoff        WCut        ... 1.0000e-14
Partially contracted basis set               ... off
Rotationally invariant grid construction     ... off
Angular grids for H and He will be reduced by one unit

Total number of grid points                  ...    32020
Total number of batches                      ...      505
Average number of points per batch           ...       63
Average number of grid points per atom       ...     4002

--------------------
COSX GRID GENERATION
--------------------

GRIDX 1
-------
General Integration Accuracy     IntAcc      ... 3.816
Radial Grid Type                 RadialGrid  ... OptM3 with GC (2021)
Angular Grid (max. ang.)         AngularGrid ... 1 (Lebedev-50)
Angular grid pruning method      GridPruning ... 4 (adaptive)
Weight generation scheme         WeightScheme... mBecke (2022)
Basis function cutoff            BFCut       ... 1.0000e-11
Integration weight cutoff        WCut        ... 1.0000e-14
Partially contracted basis set               ... on
Rotationally invariant grid construction     ... off
Angular grids for H and He will be reduced by one unit

Total number of grid points                  ...     4164
Total number of batches                      ...       38
Average number of points per batch           ...      109
Average number of grid points per atom       ...      520
UseSFitting                                  ... on

GRIDX 2
-------
General Integration Accuracy     IntAcc      ... 4.020
Radial Grid Type                 RadialGrid  ... OptM3 with GC (2021)
Angular Grid (max. ang.)         AngularGrid ... 2 (Lebedev-110)
Angular grid pruning method      GridPruning ... 4 (adaptive)
Weight generation scheme         WeightScheme... mBecke (2022)
Basis function cutoff            BFCut       ... 1.0000e-11
Integration weight cutoff        WCut        ... 1.0000e-14
Partially contracted basis set               ... on
Rotationally invariant grid construction     ... off
Angular grids for H and He will be reduced by one unit

Total number of grid points                  ...     8512
Total number of batches                      ...       70
Average number of points per batch           ...      121
Average number of grid points per atom       ...     1064
UseSFitting                                  ... on

GRIDX 3
-------
General Integration Accuracy     IntAcc      ... 4.338
Radial Grid Type                 RadialGrid  ... OptM3 with GC (2021)
Angular Grid (max. ang.)         AngularGrid ... 3 (Lebedev-194)
Angular grid pruning method      GridPruning ... 4 (adaptive)
Weight generation scheme         WeightScheme... mBecke (2022)
Basis function cutoff            BFCut       ... 1.0000e-11
Integration weight cutoff        WCut        ... 1.0000e-14
Partially contracted basis set               ... on
Rotationally invariant grid construction     ... off
Angular grids for H and He will be reduced by one unit

Total number of grid points                  ...    18726
Total number of batches                      ...      150
Average number of points per batch           ...      124
Average number of grid points per atom       ...     2341
UseSFitting                                  ... on
Grids setup in   0.3 sec
Initializing property integral containers    ... done (  0.0 sec)

SHARK setup successfully completed in   0.5 seconds

Maximum memory used throughout the entire STARTUP-calculation: 13.4 MB
-------------------------------------------------------------------------------
                                 ORCA GUESS
                   Start orbitals & Density for SCF / CASSCF
-------------------------------------------------------------------------------

------------
SCF SETTINGS
------------
Hamiltonian:
 Density Functional     Method          .... DFT(GTOs)
 Exchange Functional    Exchange        .... B88
   X-Alpha parameter    XAlpha          ....  0.666667
   Becke's b parameter  XBeta           ....  0.004200
 Correlation Functional Correlation     .... LYP
 LDA part of GGA corr.  LDAOpt          .... VWN-5
 Gradients option       PostSCFGGA      .... off
 Hybrid DFT is turned on
   Fraction HF Exchange ScalHFX         ....  0.200000
   Scaling of DF-GGA-X  ScalDFX         ....  0.720000
   Scaling of DF-GGA-C  ScalDFC         ....  0.810000
   Scaling of DF-LDA-C  ScalLDAC        ....  1.000000
   Perturbative correction              ....  0.000000
   NL short-range parameter             ....  4.800000
 RI-approximation to the Coulomb term is turned on
   Number of AuxJ basis functions       .... 164
   RIJ-COSX (HFX calculated with COS-X)).... on


General Settings:
 Integral files         IntName         .... d3h-s
 Hartree-Fock type      HFTyp           .... UHF
 Total Charge           Charge          ....    0
 Multiplicity           Mult            ....    3
 Number of Electrons    NEL             ....   18
 Basis Dimension        Dim             ....   58
 Nuclear Repulsion      ENuc            ....     28.6461806087 Eh

Convergence Acceleration:
 AO-DIIS                CNVDIIS         .... on
   Start iteration      DIISMaxIt       ....    12
   Startup error        DIISStart       ....  0.200000
   # of expansion vecs  DIISMaxEq       ....     5
   Bias factor          DIISBfac        ....   1.050
   Max. coefficient     DIISMaxC        ....  10.000
 MO-DIIS                CNVKDIIS        .... off
 Trust-Rad. Augm. Hess. CNVTRAH         .... auto
   Auto Start mean grad. ratio tolernc. ....  1.125000
   Auto Start start iteration           ....    50
   Auto Start num. interpolation iter.  ....    10
   Max. Number of Micro iterations      ....    24
   Max. Number of Macro iterations      .... Maxiter - #DIIS iter
   Number of Davidson start vectors     ....     2
   Converg. threshold    (grad. norm)   ....   1.000e-05
   Grad. Scal. Fac. for Micro threshold ....   0.100
   Minimum threshold for Micro iter.    ....   1.000e-02
   NR start threshold (gradient norm)   ....   1.000e-04
   Initial trust radius                 ....   0.400
   Minimum AH scaling param. (alpha)    ....   1.000
   Maximum AH scaling param. (alpha)    .... 1000.000
   Quad. conv. algorithm                .... NR
   White noise on init. David. guess    .... on
   Maximum white noise                  ....   0.010
   Pseudo random numbers                .... off
   Inactive MOs                         .... canonical
   Orbital update algorithm             .... Taylor
   Preconditioner                       .... Diag
   Full preconditioner red. dimension   ....   250
 SOSCF                 CNVSOSCF           .... on
   Start iteration     SOSCFMaxIt         ....   150
   Startup grad/error  SOSCFStart         ....  0.003300
   Hessian update      SOSCFHessUp        .... L-BFGS
   Autom. constraints  SOSCFAutoConstrain .... off
 Level Shifting         CNVShift        .... on
   Level shift para.    LevelShift      ....    0.2500
   Turn off err/grad.   ShiftErr        ....    0.0010
 Zerner damping         CNVZerner       .... off
 Static damping         CNVDamp         .... on
   Fraction old density DampFac         ....    0.7000
   Max. Damping (<1)    DampMax         ....    0.9800
   Min. Damping (>=0)   DampMin         ....    0.0000
   Turn off err/grad.   DampErr         ....    0.1000

SCF Procedure:
 Maximum # iterations   MaxIter         ....   300
 SCF integral mode      SCFMode         .... Direct
   Integral package                     .... SHARK and LIBINT hybrid scheme
 Reset frequency        DirectResetFreq ....    20
 Integral Threshold     Thresh          ....  2.500e-11 Eh
 Primitive CutOff       TCut            ....  2.500e-12 Eh

Convergence Tolerance:
 Convergence Check Mode ConvCheckMode   .... Total+1el-Energy
 Convergence forced     ConvForced      .... 1
 Energy Change          TolE            ....  1.000e-08 Eh
 1-El. energy change                    ....  1.000e-05 Eh
 Orbital Gradient       TolG            ....  1.000e-05
 Orbital Rotation angle TolX            ....  1.000e-05
 DIIS Error             TolErr          ....  5.000e-07


The Flip-Spin feature is operative for generating broken symmetry solutions
List of atoms to flip:
 C 0
We will now do a high-spin calculation with                 Ms=  1.0
and then try to converge to the broken symmetry state with Ms=  0.0

------------------------------
INITIAL GUESS: MODEL POTENTIAL
------------------------------
Loading Hartree-Fock densities                     ... done
Calculating cut-offs                               ... done
Initializing the effective Hamiltonian             ... done
Setting up the integral package (SHARK)            ... done
Starting the Coulomb interaction                   ... done (   0.0 sec)
Making the grid                                    ... done (   0.0 sec)
Mapping shells                                     ... done
Starting the XC term evaluation                    ... done (   0.0 sec)
  promolecular density results
     # of electrons  =     17.996947854
     EX              =    -11.938452051
     EC              =     -0.520684448
     EX+EC           =    -12.459136499
Transforming the Hamiltonian                       ... done (   0.0 sec)
Diagonalizing the Hamiltonian                      ... done (   0.0 sec)
Back transforming the eigenvectors                 ... done (   0.0 sec)
Now organizing SCF variables                       ... done
                      ------------------
                      INITIAL GUESS DONE (   0.1 sec)
                      ------------------
             **** ENERGY FILE WAS UPDATED (d3h-s.en.tmp) ****
Finished Guess after   0.1 sec
Maximum memory used throughout the entire GUESS-calculation: 6.1 MB

-------------------------------------------------------------------------------------------
                                      ORCA LEAN-SCF
                              memory conserving SCF solver
-------------------------------------------------------------------------------------------

                     ******************************************
                               F L I P    S P I N
                           -----------------------------
                            High-Spin SCF calculation
                                S(HS) =   1.0
                      ******************************************
 ----------------------------------------D-I-I-S--------------------------------------------
Iteration    Energy (Eh)           Delta-E    RMSDP     MaxDP     DIISErr   Damp  Time(sec)
-------------------------------------------------------------------------------------------
               ***  Starting incremental Fock matrix formation  ***
    1    -79.4847118704236379     0.00e+00  2.13e-03  3.44e-02  7.34e-02  0.700   0.3
    2    -79.5149070226545120    -3.02e-02  1.55e-03  2.33e-02  4.21e-02  0.700   0.2
                               ***Turning on AO-DIIS***
    3    -79.5287943919644817    -1.39e-02  6.37e-04  8.36e-03  1.95e-02  0.700   0.2
    4    -79.5367485987831628    -7.95e-03  1.17e-03  1.55e-02  1.30e-02  0.000   0.3
                              *** Initializing SOSCF ***
---------------------------------------S-O-S-C-F--------------------------------------
Iteration    Energy (Eh)           Delta-E    RMSDP     MaxDP     MaxGrad    Time(sec)
--------------------------------------------------------------------------------------
    5    -79.5538329866497804    -1.71e-02  1.77e-04  3.08e-03  2.49e-03     0.3
               *** Restarting incremental Fock matrix formation ***
    6    -79.5539660232780079    -1.33e-04  9.80e-05  1.44e-03  6.75e-04     0.5
    7    -79.5539782132436528    -1.22e-05  6.46e-05  1.15e-03  4.40e-04     0.3
    8    -79.5539801211497490    -1.91e-06  2.07e-05  3.77e-04  2.80e-04     0.3
    9    -79.5539807818097415    -6.61e-07  1.53e-06  3.61e-05  1.88e-05     0.3
   10    -79.5539807825757066    -7.66e-10  2.03e-07  4.05e-06  1.79e-06     0.2
                 **** Energy Check signals convergence ****

               *****************************************************
               *                     SUCCESS                       *
               *           SCF CONVERGED AFTER  10 CYCLES          *
               *****************************************************

Recomputing exchange energy using gridx3       ... done (    0.475 sec)
Old exchange energy                            :     -2.483076183 Eh
New exchange energy                            :     -2.483043044 Eh
Exchange energy change after final integration :      0.000033139 Eh
Total energy after final integration           :    -79.553947642 Eh
             **** ENERGY FILE WAS UPDATED (d3h-s.en.tmp) ****

----------------
TOTAL SCF ENERGY
----------------

Total Energy       :        -79.55394764234914 Eh           -2164.77297 eV

Components:
Nuclear Repulsion  :         28.64618060867951 Eh             779.50220 eV
Electronic Energy  :       -108.20016139048502 Eh           -2944.27608 eV
One Electron Energy:       -161.83344256646629 Eh           -4403.71185 eV
Two Electron Energy:         53.63328117598127 Eh            1459.43578 eV

Virial components:
Potential Energy   :       -158.11385107513291 Eh           -4302.49662 eV
Kinetic Energy     :         78.55990343278378 Eh            2137.72365 eV
Virial Ratio       :          2.01265332779356

DFT components:
N(Alpha)           :        9.999995048018 electrons
N(Beta)            :        7.999999065401 electrons
N(Total)           :       17.999994113418 electrons
E(X)               :       -9.807854789604 Eh       
E(C)               :       -0.619154280501 Eh       
E(XC)              :      -10.427009070104 Eh       

---------------
SCF CONVERGENCE
---------------

  Last Energy change         ...    7.6597e-10  Tolerance :   1.0000e-08
  Last MAX-Density change    ...    4.0518e-06  Tolerance :   1.0000e-07
  Last RMS-Density change    ...    2.0327e-07  Tolerance :   5.0000e-09
  Last DIIS Error            ...    2.4908e-03  Tolerance :   5.0000e-07
  Last Orbital Gradient      ...    1.7919e-06  Tolerance :   1.0000e-05
  Last Orbital Rotation      ...    2.7165e-06  Tolerance :   1.0000e-05


----------------------
UHF SPIN CONTAMINATION
----------------------

Warning: in a DFT calculation there is little theoretical justification to 
         calculate <S**2> as in Hartree-Fock theory. We will do it anyways
         but you should keep in mind that the values have only limited relevance

Expectation value of <S**2>     :     2.007203
Ideal value S*(S+1) for S=1.0   :     2.000000
Deviation                       :     0.007203


                    ********************************
                    * MULLIKEN POPULATION ANALYSIS *
                    ********************************

--------------------------------------------
MULLIKEN ATOMIC CHARGES AND SPIN POPULATIONS
--------------------------------------------
   0 C :   -0.165459    1.141048
   1 H :    0.055119   -0.047023
   2 H :    0.055170   -0.047012
   3 H :    0.055170   -0.047012
   4 C :   -0.165459    1.141048
   5 H :    0.055119   -0.047023
   6 H :    0.055170   -0.047012
   7 H :    0.055170   -0.047012
Sum of atomic charges         :   -0.0000000
Sum of atomic spin populations:    2.0000000

-----------------------------------------------------
MULLIKEN REDUCED ORBITAL CHARGES AND SPIN POPULATIONS
-----------------------------------------------------
CHARGE
  0 C s       :     3.201689  s :     3.201689
      pz      :     0.983902  p :     2.949336
      px      :     0.982794
      py      :     0.982640
      dz2     :     0.001609  d :     0.014435
      dxz     :     0.000000
      dyz     :     0.000000
      dx2y2   :     0.006412
      dxy     :     0.006413

  1 H s       :     0.920473  s :     0.920473
      pz      :     0.005278  p :     0.024408
      px      :     0.014565
      py      :     0.004565

  2 H s       :     0.920424  s :     0.920424
      pz      :     0.005277  p :     0.024406
      px      :     0.007065
      py      :     0.012063

  3 H s       :     0.920424  s :     0.920424
      pz      :     0.005277  p :     0.024406
      px      :     0.007065
      py      :     0.012063

  4 C s       :     3.201689  s :     3.201689
      pz      :     0.983902  p :     2.949336
      px      :     0.982794
      py      :     0.982640
      dz2     :     0.001609  d :     0.014435
      dxz     :     0.000000
      dyz     :     0.000000
      dx2y2   :     0.006412
      dxy     :     0.006413

  5 H s       :     0.920473  s :     0.920473
      pz      :     0.005278  p :     0.024408
      px      :     0.014565
      py      :     0.004565

  6 H s       :     0.920424  s :     0.920424
      pz      :     0.005277  p :     0.024406
      px      :     0.007065
      py      :     0.012063

  7 H s       :     0.920424  s :     0.920424
      pz      :     0.005277  p :     0.024406
      px      :     0.007065
      py      :     0.012063


SPIN
  0 C s       :     0.083824  s :     0.083824
      pz      :     0.983892  p :     1.059952
      px      :     0.038025
      py      :     0.038035
      dz2     :    -0.002668  d :    -0.002728
      dxz     :    -0.000000
      dyz     :    -0.000000
      dx2y2   :    -0.000030
      dxy     :    -0.000029

  1 H s       :    -0.052551  s :    -0.052551
      pz      :     0.005278  p :     0.005529
      px      :     0.000410
      py      :    -0.000159

  2 H s       :    -0.052540  s :    -0.052540
      pz      :     0.005277  p :     0.005528
      px      :    -0.000017
      py      :     0.000267

  3 H s       :    -0.052540  s :    -0.052540
      pz      :     0.005277  p :     0.005528
      px      :    -0.000017
      py      :     0.000267

  4 C s       :     0.083824  s :     0.083824
      pz      :     0.983892  p :     1.059952
      px      :     0.038025
      py      :     0.038035
      dz2     :    -0.002668  d :    -0.002728
      dxz     :    -0.000000
      dyz     :    -0.000000
      dx2y2   :    -0.000030
      dxy     :    -0.000029

  5 H s       :    -0.052551  s :    -0.052551
      pz      :     0.005278  p :     0.005529
      px      :     0.000410
      py      :    -0.000159

  6 H s       :    -0.052540  s :    -0.052540
      pz      :     0.005277  p :     0.005528
      px      :    -0.000017
      py      :     0.000267

  7 H s       :    -0.052540  s :    -0.052540
      pz      :     0.005277  p :     0.005528
      px      :    -0.000017
      py      :     0.000267



                     *******************************
                     * LOEWDIN POPULATION ANALYSIS *
                     *******************************

-------------------------------------------
LOEWDIN ATOMIC CHARGES AND SPIN POPULATIONS
-------------------------------------------
   0 C :   -0.045971    1.005006
   1 H :    0.015333   -0.001675
   2 H :    0.015319   -0.001665
   3 H :    0.015319   -0.001665
   4 C :   -0.045971    1.005006
   5 H :    0.015333   -0.001675
   6 H :    0.015319   -0.001665
   7 H :    0.015319   -0.001665

----------------------------------------------------
LOEWDIN REDUCED ORBITAL CHARGES AND SPIN POPULATIONS
----------------------------------------------------
CHARGE
  0 C s       :     2.944734  s :     2.944734
      pz      :     0.941280  p :     3.065298
      px      :     1.062025
      py      :     1.061993
      dz2     :     0.003197  d :     0.035939
      dxz     :     0.000000
      dyz     :     0.000000
      dx2y2   :     0.016368
      dxy     :     0.016374

  1 H s       :     0.910397  s :     0.910397
      pz      :     0.019483  p :     0.074270
      px      :     0.043967
      py      :     0.010820

  2 H s       :     0.910401  s :     0.910401
      pz      :     0.019485  p :     0.074280
      px      :     0.019111
      py      :     0.035684

  3 H s       :     0.910401  s :     0.910401
      pz      :     0.019485  p :     0.074280
      px      :     0.019111
      py      :     0.035684

  4 C s       :     2.944734  s :     2.944734
      pz      :     0.941280  p :     3.065298
      px      :     1.062025
      py      :     1.061993
      dz2     :     0.003197  d :     0.035939
      dxz     :     0.000000
      dyz     :     0.000000
      dx2y2   :     0.016368
      dxy     :     0.016374

  5 H s       :     0.910397  s :     0.910397
      pz      :     0.019483  p :     0.074270
      px      :     0.043967
      py      :     0.010820

  6 H s       :     0.910401  s :     0.910401
      pz      :     0.019485  p :     0.074280
      px      :     0.019111
      py      :     0.035684

  7 H s       :     0.910401  s :     0.910401
      pz      :     0.019485  p :     0.074280
      px      :     0.019111
      py      :     0.035684


SPIN
  0 C s       :     0.031770  s :     0.031770
      pz      :     0.941279  p :     0.977357
      px      :     0.018038
      py      :     0.018040
      dz2     :    -0.002297  d :    -0.004121
      dxz     :    -0.000000
      dyz     :    -0.000000
      dx2y2   :    -0.000912
      dxy     :    -0.000912

  1 H s       :    -0.024986  s :    -0.024986
      pz      :     0.019483  p :     0.023311
      px      :     0.003454
      py      :     0.000374

  2 H s       :    -0.024978  s :    -0.024978
      pz      :     0.019485  p :     0.023312
      px      :     0.001144
      py      :     0.002683

  3 H s       :    -0.024978  s :    -0.024978
      pz      :     0.019485  p :     0.023312
      px      :     0.001144
      py      :     0.002683

  4 C s       :     0.031770  s :     0.031770
      pz      :     0.941279  p :     0.977357
      px      :     0.018038
      py      :     0.018040
      dz2     :    -0.002297  d :    -0.004121
      dxz     :    -0.000000
      dyz     :    -0.000000
      dx2y2   :    -0.000912
      dxy     :    -0.000912

  5 H s       :    -0.024986  s :    -0.024986
      pz      :     0.019483  p :     0.023311
      px      :     0.003454
      py      :     0.000374

  6 H s       :    -0.024978  s :    -0.024978
      pz      :     0.019485  p :     0.023312
      px      :     0.001144
      py      :     0.002683

  7 H s       :    -0.024978  s :    -0.024978
      pz      :     0.019485  p :     0.023312
      px      :     0.001144
      py      :     0.002683



                      *****************************
                      * MAYER POPULATION ANALYSIS *
                      *****************************

  NA   - Mulliken gross atomic population
  ZA   - Total nuclear charge
  QA   - Mulliken gross atomic charge
  VA   - Mayer's total valence
  BVA  - Mayer's bonded valence
  FA   - Mayer's free valence

  ATOM       NA         ZA         QA         VA         BVA        FA
  0 C      6.1655     6.0000    -0.1655     3.9583     2.9811     0.9772
  1 H      0.9449     1.0000     0.0551     0.9862     0.9834     0.0028
  2 H      0.9448     1.0000     0.0552     0.9861     0.9833     0.0028
  3 H      0.9448     1.0000     0.0552     0.9861     0.9833     0.0028
  4 C      6.1655     6.0000    -0.1655     3.9583     2.9811     0.9772
  5 H      0.9449     1.0000     0.0551     0.9862     0.9834     0.0028
  6 H      0.9448     1.0000     0.0552     0.9861     0.9833     0.0028
  7 H      0.9448     1.0000     0.0552     0.9861     0.9833     0.0028

  Mayer bond orders larger than 0.100000
B(  0-C ,  1-H ) :   0.9931 B(  0-C ,  2-H ) :   0.9931 B(  0-C ,  3-H ) :   0.9931 
B(  4-C ,  5-H ) :   0.9931 B(  4-C ,  6-H ) :   0.9931 B(  4-C ,  7-H ) :   0.9931 


-------------------------
FLIP-SPIN BROKEN SYMMETRY
-------------------------

 Flipping spin on atom C  0
Before flipping the spin we have:
Multiplicity                     ... 3
Number of unpaired electrons     ... 2
Number of spin-up electrons      ... 10
Number of spin-down electrons    ... 8
HOMO spin-up                     ... 9
HOMO spin-down                   ... 7
After flipping the spin we have:
Multiplicity                     ... 1
Number of unpaired electrons     ... 0
Number of spin-up electrons      ... 9
Number of spin-down electrons    ... 9
HOMO spin-up                     ... 8
HOMO spin-down                   ... 8

                      ******************************************
                               F L I P    S P I N
                           -----------------------------
                           Broken Symmetry SCF calculation
                                   MS(BS) =   0.0
                      ******************************************
 
The new occupation numbers
   0:    1.000    1.000
   1:    1.000    1.000
   2:    1.000    1.000
   3:    1.000    1.000
   4:    1.000    1.000
   5:    1.000    1.000
   6:    1.000    1.000
   7:    1.000    1.000
   8:    1.000    1.000
   9:    0.000    0.000
  10:    0.000    0.000
  11:    0.000    0.000
  12:    0.000    0.000
  13:    0.000    0.000
  14:    0.000    0.000
  15:    0.000    0.000
  16:    0.000    0.000
  17:    0.000    0.000
  18:    0.000    0.000
  19:    0.000    0.000

----------------------------------------D-I-I-S--------------------------------------------
Iteration    Energy (Eh)           Delta-E    RMSDP     MaxDP     DIISErr   Damp  Time(sec)
-------------------------------------------------------------------------------------------
               ***  Starting incremental Fock matrix formation  ***
                              *** Initializing SOSCF ***
---------------------------------------S-O-S-C-F--------------------------------------
Iteration    Energy (Eh)           Delta-E    RMSDP     MaxDP     MaxGrad    Time(sec)
--------------------------------------------------------------------------------------
    1    -79.5543007853144104     0.00e+00  2.29e-04  3.79e-03  5.90e-15     0.3
               *** Restarting incremental Fock matrix formation ***
    2    -79.5543980400785813    -9.73e-05  7.26e-05  1.27e-03  8.61e-04     0.4
    3    -79.5544080428993823    -1.00e-05  5.57e-05  1.00e-03  4.22e-04     0.3
    4    -79.5544093502007001    -1.31e-06  1.60e-05  2.92e-04  2.48e-04     0.4
    5    -79.5544099248981809    -5.75e-07  1.90e-06  3.31e-05  2.10e-05     0.4
    6    -79.5544099302069583    -5.31e-09  3.14e-07  5.43e-06  2.32e-06     0.3
                 **** Energy Check signals convergence ****

               *****************************************************
               *                     SUCCESS                       *
               *           SCF CONVERGED AFTER   6 CYCLES          *
               *****************************************************

Recomputing exchange energy using gridx3       ... done (    0.475 sec)
Old exchange energy                            :     -2.482779408 Eh
New exchange energy                            :     -2.482745908 Eh
Exchange energy change after final integration :      0.000033501 Eh
Total energy after final integration           :    -79.554376431 Eh
             **** ENERGY FILE WAS UPDATED (d3h-s.en.tmp) ****

----------------
TOTAL SCF ENERGY
----------------

Total Energy       :        -79.55437643089257 Eh           -2164.78464 eV

Components:
Nuclear Repulsion  :         28.64618060867951 Eh             779.50220 eV
Electronic Energy  :       -108.20059054040684 Eh           -2944.28775 eV
One Electron Energy:       -161.83090102114608 Eh           -4403.64269 eV
Two Electron Energy:         53.63031048073924 Eh            1459.35494 eV

Virial components:
Potential Energy   :       -158.11112713391842 Eh           -4302.42250 eV
Kinetic Energy     :         78.55675070302584 Eh            2137.63786 eV
Virial Ratio       :          2.01269942708855

DFT components:
N(Alpha)           :        8.999996848755 electrons
N(Beta)            :        8.999996848814 electrons
N(Total)           :       17.999993697568 electrons
E(X)               :       -9.807062519270 Eh       
E(C)               :       -0.619310449438 Eh       
E(XC)              :      -10.426372968708 Eh       

---------------
SCF CONVERGENCE
---------------

  Last Energy change         ...    5.3088e-09  Tolerance :   1.0000e-08
  Last MAX-Density change    ...    5.4288e-06  Tolerance :   1.0000e-07
  Last RMS-Density change    ...    3.1358e-07  Tolerance :   5.0000e-09
  Last DIIS Error            ...    2.5776e-03  Tolerance :   5.0000e-07
  Last Orbital Gradient      ...    2.3153e-06  Tolerance :   1.0000e-05
  Last Orbital Rotation      ...    4.8554e-06  Tolerance :   1.0000e-05


----------------------
UHF SPIN CONTAMINATION
----------------------

Warning: in a DFT calculation there is little theoretical justification to 
         calculate <S**2> as in Hartree-Fock theory. We will do it anyways
         but you should keep in mind that the values have only limited relevance

Expectation value of <S**2>     :     1.002832
Ideal value S*(S+1) for S=0.0   :     0.000000
Deviation                       :     1.002832


                    ********************************
                    * MULLIKEN POPULATION ANALYSIS *
                    ********************************

--------------------------------------------
MULLIKEN ATOMIC CHARGES AND SPIN POPULATIONS
--------------------------------------------
   0 C :   -0.166216   -1.137952
   1 H :    0.055370    0.047063
   2 H :    0.055423    0.047049
   3 H :    0.055423    0.047049
   4 C :   -0.166217    1.137955
   5 H :    0.055371   -0.047064
   6 H :    0.055423   -0.047051
   7 H :    0.055423   -0.047051
Sum of atomic charges         :   -0.0000000
Sum of atomic spin populations:    0.0000000

-----------------------------------------------------
MULLIKEN REDUCED ORBITAL CHARGES AND SPIN POPULATIONS
-----------------------------------------------------
CHARGE
  0 C s       :     3.201776  s :     3.201776
      pz      :     0.984011  p :     2.950003
      px      :     0.983072
      py      :     0.982920
      dz2     :     0.001608  d :     0.014437
      dxz     :     0.000000
      dyz     :     0.000000
      dx2y2   :     0.006414
      dxy     :     0.006415

  1 H s       :     0.920248  s :     0.920248
      pz      :     0.005247  p :     0.024382
      px      :     0.014569
      py      :     0.004566

  2 H s       :     0.920197  s :     0.920197
      pz      :     0.005246  p :     0.024380
      px      :     0.007067
      py      :     0.012066

  3 H s       :     0.920197  s :     0.920197
      pz      :     0.005246  p :     0.024380
      px      :     0.007067
      py      :     0.012066

  4 C s       :     3.201776  s :     3.201776
      pz      :     0.984011  p :     2.950004
      px      :     0.983072
      py      :     0.982921
      dz2     :     0.001608  d :     0.014437
      dxz     :     0.000000
      dyz     :     0.000000
      dx2y2   :     0.006414
      dxy     :     0.006415

  5 H s       :     0.920248  s :     0.920248
      pz      :     0.005247  p :     0.024382
      px      :     0.014569
      py      :     0.004566

  6 H s       :     0.920197  s :     0.920197
      pz      :     0.005246  p :     0.024380
      px      :     0.007067
      py      :     0.012066

  7 H s       :     0.920197  s :     0.920197
      pz      :     0.005246  p :     0.024380
      px      :     0.007067
      py      :     0.012066


SPIN
  0 C s       :    -0.083584  s :    -0.083584
      pz      :    -0.981304  p :    -1.057091
      px      :    -0.037890
      py      :    -0.037897
      dz2     :     0.002663  d :     0.002723
      dxz     :     0.000000
      dyz     :     0.000000
      dx2y2   :     0.000030
      dxy     :     0.000030

  1 H s       :     0.052560  s :     0.052560
      pz      :    -0.005249  p :    -0.005497
      px      :    -0.000407
      py      :     0.000159

  2 H s       :     0.052545  s :     0.052545
      pz      :    -0.005249  p :    -0.005496
      px      :     0.000018
      py      :    -0.000265

  3 H s       :     0.052545  s :     0.052545
      pz      :    -0.005249  p :    -0.005496
      px      :     0.000018
      py      :    -0.000265

  4 C s       :     0.083585  s :     0.083585
      pz      :     0.981304  p :     1.057094
      px      :     0.037891
      py      :     0.037899
      dz2     :    -0.002663  d :    -0.002723
      dxz     :    -0.000000
      dyz     :    -0.000000
      dx2y2   :    -0.000030
      dxy     :    -0.000030

  5 H s       :    -0.052561  s :    -0.052561
      pz      :     0.005249  p :     0.005497
      px      :     0.000407
      py      :    -0.000159

  6 H s       :    -0.052547  s :    -0.052547
      pz      :     0.005249  p :     0.005496
      px      :    -0.000018
      py      :     0.000265

  7 H s       :    -0.052547  s :    -0.052547
      pz      :     0.005249  p :     0.005496
      px      :    -0.000018
      py      :     0.000265



                     *******************************
                     * LOEWDIN POPULATION ANALYSIS *
                     *******************************

-------------------------------------------
LOEWDIN ATOMIC CHARGES AND SPIN POPULATIONS
-------------------------------------------
   0 C :   -0.046467   -1.002042
   1 H :    0.015499    0.001779
   2 H :    0.015484    0.001768
   3 H :    0.015484    0.001768
   4 C :   -0.046468    1.002044
   5 H :    0.015499   -0.001780
   6 H :    0.015485   -0.001769
   7 H :    0.015485   -0.001769

----------------------------------------------------
LOEWDIN REDUCED ORBITAL CHARGES AND SPIN POPULATIONS
----------------------------------------------------
CHARGE
  0 C s       :     2.944839  s :     2.944839
      pz      :     0.941396  p :     3.065697
      px      :     1.062166
      py      :     1.062135
      dz2     :     0.003194  d :     0.035932
      dxz     :     0.000000
      dyz     :     0.000000
      dx2y2   :     0.016365
      dxy     :     0.016372

  1 H s       :     0.910234  s :     0.910234
      pz      :     0.019449  p :     0.074267
      px      :     0.043996
      py      :     0.010822

  2 H s       :     0.910238  s :     0.910238
      pz      :     0.019451  p :     0.074278
      px      :     0.019120
      py      :     0.035707

  3 H s       :     0.910238  s :     0.910238
      pz      :     0.019451  p :     0.074278
      px      :     0.019120
      py      :     0.035707

  4 C s       :     2.944839  s :     2.944839
      pz      :     0.941396  p :     3.065698
      px      :     1.062166
      py      :     1.062135
      dz2     :     0.003194  d :     0.035932
      dxz     :     0.000000
      dyz     :     0.000000
      dx2y2   :     0.016365
      dxy     :     0.016372

  5 H s       :     0.910234  s :     0.910234
      pz      :     0.019449  p :     0.074267
      px      :     0.043996
      py      :     0.010822

  6 H s       :     0.910238  s :     0.910238
      pz      :     0.019451  p :     0.074278
      px      :     0.019120
      py      :     0.035707

  7 H s       :     0.910238  s :     0.910238
      pz      :     0.019451  p :     0.074278
      px      :     0.019120
      py      :     0.035707


SPIN
  0 C s       :    -0.031498  s :    -0.031498
      pz      :    -0.938691  p :    -0.974663
      px      :    -0.017985
      py      :    -0.017987
      dz2     :     0.002295  d :     0.004119
      dxz     :     0.000000
      dyz     :     0.000000
      dx2y2   :     0.000912
      dxy     :     0.000912

  1 H s       :     0.025011  s :     0.025011
      pz      :    -0.019428  p :    -0.023232
      px      :    -0.003432
      py      :    -0.000372

  2 H s       :     0.025002  s :     0.025002
      pz      :    -0.019430  p :    -0.023234
      px      :    -0.001137
      py      :    -0.002666

  3 H s       :     0.025002  s :     0.025002
      pz      :    -0.019430  p :    -0.023234
      px      :    -0.001137
      py      :    -0.002666

  4 C s       :     0.031499  s :     0.031499
      pz      :     0.938691  p :     0.974664
      px      :     0.017986
      py      :     0.017987
      dz2     :    -0.002295  d :    -0.004119
      dxz     :    -0.000000
      dyz     :    -0.000000
      dx2y2   :    -0.000912
      dxy     :    -0.000912

  5 H s       :    -0.025012  s :    -0.025012
      pz      :     0.019428  p :     0.023233
      px      :     0.003432
      py      :     0.000372

  6 H s       :    -0.025003  s :    -0.025003
      pz      :     0.019430  p :     0.023234
      px      :     0.001137
      py      :     0.002666

  7 H s       :    -0.025003  s :    -0.025003
      pz      :     0.019430  p :     0.023234
      px      :     0.001137
      py      :     0.002666



                      *****************************
                      * MAYER POPULATION ANALYSIS *
                      *****************************

  NA   - Mulliken gross atomic population
  ZA   - Total nuclear charge
  QA   - Mulliken gross atomic charge
  VA   - Mayer's total valence
  BVA  - Mayer's bonded valence
  FA   - Mayer's free valence

  ATOM       NA         ZA         QA         VA         BVA        FA
  0 C      6.1662     6.0000    -0.1662     3.9583     2.9852     0.9731
  1 H      0.9446     1.0000     0.0554     0.9861     0.9834     0.0028
  2 H      0.9446     1.0000     0.0554     0.9861     0.9833     0.0028
  3 H      0.9446     1.0000     0.0554     0.9861     0.9833     0.0028
  4 C      6.1662     6.0000    -0.1662     3.9583     2.9852     0.9731
  5 H      0.9446     1.0000     0.0554     0.9861     0.9834     0.0028
  6 H      0.9446     1.0000     0.0554     0.9861     0.9833     0.0028
  7 H      0.9446     1.0000     0.0554     0.9861     0.9833     0.0028

  Mayer bond orders larger than 0.100000
B(  0-C ,  1-H ) :   0.9931 B(  0-C ,  2-H ) :   0.9930 B(  0-C ,  3-H ) :   0.9930 
B(  4-C ,  5-H ) :   0.9931 B(  4-C ,  6-H ) :   0.9930 B(  4-C ,  7-H ) :   0.9930 



--------------------------
UHF CORRESPONDING ORBITALS
--------------------------
Transforming orbitals                         ... VA transformation done
VB transformation done
T transformation done
R transformation done
done
Choosing virtual orbitals in the orth. comp.  ... done
                ***UHF Corresponding Orbitals were saved in d3h-s.uco***


Now the overlap between the corresponding orbitals will be printed
Since there are an equal number of alpha and beta orbitals each orbital in the
alpha set is matched by an orbital in the beta set. If all overlaps are close to
one you have a normal UHF solution with some spin polarization
If you have a broken symmetry solution there will be overlaps that are
significantly smaller than one. These orbitals are the non-orthogonal magnetic
orbitals of the broken symmetry UHF solution.

----------------------
 Orbital    Overlap(*)
----------------------
   0:      1.00000
   1:      1.00000
   2:      0.99973
   3:      0.99973
   4:      0.99973
   5:      0.99973
   6:      0.99875
   7:      0.99875
   8:      0.06573
(*)  the overlap is weighted by the product of occupation numbers
     NOTE: the whole analysis is not valid for fractional occupations

------------------------------------------
BROKEN SYMMETRY MAGNETIC COUPLING ANALYSIS
------------------------------------------

S(High-Spin)      =   1.0    
<S**2>(High-Spin) =   2.0072    
<S**2>(BrokenSym) =   1.0028    
E(High-Spin)      =   -79.553948 Eh
E(BrokenSym)      =   -79.554376 Eh
E(High-Spin)-E(BrokenSym)= 0.0117 eV     94.099 cm**-1 (ANTIFERROMAGNETIC coupling)

          ---------------------------------------------------------
          | Spin-Hamiltonian Analysis based on H(HDvV)= -2J*SA*SB |
    -------                                                       -----------
    | J(1) =     -94.10 cm**-1    (from -(E[HS]-E[BS])/Smax**2)             |
    | J(2) =     -47.05 cm**-1    (from -(E[HS]-E[BS])/(Smax*(Smax+1))      |
    | J(3) =     -93.69 cm**-1    (from -(E[HS]-E[BS])/(<S**2>HS-<S**2>BS)) |
    -------------------------------------------------------------------------

  J(1): (a) A.P. Ginsberg J. Am. Chem. Soc. 102 (1980), 111
        (b) L. Noodleman J. Chem. Phys. 74 (1981), 5737
        (c) L. Noodleman E.R. Davidson Chem. Phys. 109 (1986), 131
  J(2)  (d) A. Bencini D. Gatteschi J. Am. Chem. Soc. 108 (1980), 5763
  J(3)  (e) K. Yamaguchi Y. Takahara T. Fueno in: V.H. Smith (Ed.)
            Applied Quantum Chemistry. Reidel, Dordrecht (1986), pp 155
        (f) T.Soda et al. Chem. Phys. Lett., 319, (2000), 223


----------------
TOTAL SCF ENERGY
----------------

Total Energy       :        -79.55437643089257 Eh           -2164.78464 eV

Components:
Nuclear Repulsion  :         28.64618060867951 Eh             779.50220 eV
Electronic Energy  :       -108.20059054040684 Eh           -2944.28775 eV
One Electron Energy:       -161.83090102114608 Eh           -4403.64269 eV
Two Electron Energy:         53.63031048073924 Eh            1459.35494 eV

Virial components:
Potential Energy   :       -158.11112713391842 Eh           -4302.42250 eV
Kinetic Energy     :         78.55675070302584 Eh            2137.63786 eV
Virial Ratio       :          2.01269942708855

DFT components:
N(Alpha)           :        8.999996848755 electrons
N(Beta)            :        8.999996848814 electrons
N(Total)           :       17.999993697568 electrons
E(X)               :       -9.807062519270 Eh       
E(C)               :       -0.619310449438 Eh       
E(XC)              :      -10.426372968708 Eh       

---------------
SCF CONVERGENCE
---------------

  Last Energy change         ...    5.3088e-09  Tolerance :   1.0000e-08
  Last MAX-Density change    ...    5.4288e-06  Tolerance :   1.0000e-07
  Last RMS-Density change    ...    3.1358e-07  Tolerance :   5.0000e-09
  Last DIIS Error            ...    2.5776e-03  Tolerance :   5.0000e-07
  Last Orbital Gradient      ...    2.3153e-06  Tolerance :   1.0000e-05
  Last Orbital Rotation      ...    4.8554e-06  Tolerance :   1.0000e-05


----------------------
UHF SPIN CONTAMINATION
----------------------

Warning: in a DFT calculation there is little theoretical justification to 
         calculate <S**2> as in Hartree-Fock theory. We will do it anyways
         but you should keep in mind that the values have only limited relevance

Expectation value of <S**2>     :     1.002832
Ideal value S*(S+1) for S=0.0   :     0.000000
Deviation                       :     1.002832

----------------
ORBITAL ENERGIES
----------------
                 SPIN UP ORBITALS
  NO   OCC          E(Eh)            E(eV) 
   0   1.0000     -10.193119      -277.3689 
   1   1.0000     -10.178444      -276.9695 
   2   1.0000      -0.671753       -18.2793 
   3   1.0000      -0.631952       -17.1963 
   4   1.0000      -0.414569       -11.2810 
   5   1.0000      -0.414549       -11.2804 
   6   1.0000      -0.404334       -11.0025 
   7   1.0000      -0.404314       -11.0019 
   8   1.0000      -0.227315        -6.1856 
   9   0.0000      -0.055919        -1.5216 
  10   0.0000       0.079475         2.1626 
  11   0.0000       0.095009         2.5853 
  12   0.0000       0.143026         3.8919 
  13   0.0000       0.143043         3.8924 
  14   0.0000       0.155035         4.2187 
  15   0.0000       0.155053         4.2192 
  16   0.0000       0.442282        12.0351 
  17   0.0000       0.442344        12.0368 
  18   0.0000       0.444663        12.0999 
  19   0.0000       0.453016        12.3272 

                 SPIN DOWN ORBITALS
  NO   OCC          E(Eh)            E(eV) 
   0   1.0000     -10.193120      -277.3689 
   1   1.0000     -10.178442      -276.9695 
   2   1.0000      -0.671753       -18.2793 
   3   1.0000      -0.631951       -17.1963 
   4   1.0000      -0.414570       -11.2810 
   5   1.0000      -0.414549       -11.2805 
   6   1.0000      -0.404334       -11.0025 
   7   1.0000      -0.404313       -11.0019 
   8   1.0000      -0.227316        -6.1856 
   9   0.0000      -0.055918        -1.5216 
  10   0.0000       0.079475         2.1626 
  11   0.0000       0.095009         2.5853 
  12   0.0000       0.143026         3.8919 
  13   0.0000       0.143043         3.8924 
  14   0.0000       0.155035         4.2187 
  15   0.0000       0.155053         4.2192 
  16   0.0000       0.442282        12.0351 
  17   0.0000       0.442344        12.0368 
  18   0.0000       0.444663        12.0999 
  19   0.0000       0.453017        12.3272 
*Only the first 10 virtual orbitals were printed.

                    ********************************
                    * MULLIKEN POPULATION ANALYSIS *
                    ********************************

--------------------------------------------
MULLIKEN ATOMIC CHARGES AND SPIN POPULATIONS
--------------------------------------------
   0 C :   -0.166216   -1.137952
   1 H :    0.055370    0.047063
   2 H :    0.055423    0.047049
   3 H :    0.055423    0.047049
   4 C :   -0.166217    1.137955
   5 H :    0.055371   -0.047064
   6 H :    0.055423   -0.047051
   7 H :    0.055423   -0.047051
Sum of atomic charges         :   -0.0000000
Sum of atomic spin populations:    0.0000000

-----------------------------------------------------
MULLIKEN REDUCED ORBITAL CHARGES AND SPIN POPULATIONS
-----------------------------------------------------
CHARGE
  0 C s       :     3.201776  s :     3.201776
      pz      :     0.984011  p :     2.950003
      px      :     0.983072
      py      :     0.982920
      dz2     :     0.001608  d :     0.014437
      dxz     :     0.000000
      dyz     :     0.000000
      dx2y2   :     0.006414
      dxy     :     0.006415

  1 H s       :     0.920248  s :     0.920248
      pz      :     0.005247  p :     0.024382
      px      :     0.014569
      py      :     0.004566

  2 H s       :     0.920197  s :     0.920197
      pz      :     0.005246  p :     0.024380
      px      :     0.007067
      py      :     0.012066

  3 H s       :     0.920197  s :     0.920197
      pz      :     0.005246  p :     0.024380
      px      :     0.007067
      py      :     0.012066

  4 C s       :     3.201776  s :     3.201776
      pz      :     0.984011  p :     2.950004
      px      :     0.983072
      py      :     0.982921
      dz2     :     0.001608  d :     0.014437
      dxz     :     0.000000
      dyz     :     0.000000
      dx2y2   :     0.006414
      dxy     :     0.006415

  5 H s       :     0.920248  s :     0.920248
      pz      :     0.005247  p :     0.024382
      px      :     0.014569
      py      :     0.004566

  6 H s       :     0.920197  s :     0.920197
      pz      :     0.005246  p :     0.024380
      px      :     0.007067
      py      :     0.012066

  7 H s       :     0.920197  s :     0.920197
      pz      :     0.005246  p :     0.024380
      px      :     0.007067
      py      :     0.012066


SPIN
  0 C s       :    -0.083584  s :    -0.083584
      pz      :    -0.981304  p :    -1.057091
      px      :    -0.037890
      py      :    -0.037897
      dz2     :     0.002663  d :     0.002723
      dxz     :     0.000000
      dyz     :     0.000000
      dx2y2   :     0.000030
      dxy     :     0.000030

  1 H s       :     0.052560  s :     0.052560
      pz      :    -0.005249  p :    -0.005497
      px      :    -0.000407
      py      :     0.000159

  2 H s       :     0.052545  s :     0.052545
      pz      :    -0.005249  p :    -0.005496
      px      :     0.000018
      py      :    -0.000265

  3 H s       :     0.052545  s :     0.052545
      pz      :    -0.005249  p :    -0.005496
      px      :     0.000018
      py      :    -0.000265

  4 C s       :     0.083585  s :     0.083585
      pz      :     0.981304  p :     1.057094
      px      :     0.037891
      py      :     0.037899
      dz2     :    -0.002663  d :    -0.002723
      dxz     :    -0.000000
      dyz     :    -0.000000
      dx2y2   :    -0.000030
      dxy     :    -0.000030

  5 H s       :    -0.052561  s :    -0.052561
      pz      :     0.005249  p :     0.005497
      px      :     0.000407
      py      :    -0.000159

  6 H s       :    -0.052547  s :    -0.052547
      pz      :     0.005249  p :     0.005496
      px      :    -0.000018
      py      :     0.000265

  7 H s       :    -0.052547  s :    -0.052547
      pz      :     0.005249  p :     0.005496
      px      :    -0.000018
      py      :     0.000265



                     *******************************
                     * LOEWDIN POPULATION ANALYSIS *
                     *******************************

-------------------------------------------
LOEWDIN ATOMIC CHARGES AND SPIN POPULATIONS
-------------------------------------------
   0 C :   -0.046467   -1.002042
   1 H :    0.015499    0.001779
   2 H :    0.015484    0.001768
   3 H :    0.015484    0.001768
   4 C :   -0.046468    1.002044
   5 H :    0.015499   -0.001780
   6 H :    0.015485   -0.001769
   7 H :    0.015485   -0.001769

----------------------------------------------------
LOEWDIN REDUCED ORBITAL CHARGES AND SPIN POPULATIONS
----------------------------------------------------
CHARGE
  0 C s       :     2.944839  s :     2.944839
      pz      :     0.941396  p :     3.065697
      px      :     1.062166
      py      :     1.062135
      dz2     :     0.003194  d :     0.035932
      dxz     :     0.000000
      dyz     :     0.000000
      dx2y2   :     0.016365
      dxy     :     0.016372

  1 H s       :     0.910234  s :     0.910234
      pz      :     0.019449  p :     0.074267
      px      :     0.043996
      py      :     0.010822

  2 H s       :     0.910238  s :     0.910238
      pz      :     0.019451  p :     0.074278
      px      :     0.019120
      py      :     0.035707

  3 H s       :     0.910238  s :     0.910238
      pz      :     0.019451  p :     0.074278
      px      :     0.019120
      py      :     0.035707

  4 C s       :     2.944839  s :     2.944839
      pz      :     0.941396  p :     3.065698
      px      :     1.062166
      py      :     1.062135
      dz2     :     0.003194  d :     0.035932
      dxz     :     0.000000
      dyz     :     0.000000
      dx2y2   :     0.016365
      dxy     :     0.016372

  5 H s       :     0.910234  s :     0.910234
      pz      :     0.019449  p :     0.074267
      px      :     0.043996
      py      :     0.010822

  6 H s       :     0.910238  s :     0.910238
      pz      :     0.019451  p :     0.074278
      px      :     0.019120
      py      :     0.035707

  7 H s       :     0.910238  s :     0.910238
      pz      :     0.019451  p :     0.074278
      px      :     0.019120
      py      :     0.035707


SPIN
  0 C s       :    -0.031498  s :    -0.031498
      pz      :    -0.938691  p :    -0.974663
      px      :    -0.017985
      py      :    -0.017987
      dz2     :     0.002295  d :     0.004119
      dxz     :     0.000000
      dyz     :     0.000000
      dx2y2   :     0.000912
      dxy     :     0.000912

  1 H s       :     0.025011  s :     0.025011
      pz      :    -0.019428  p :    -0.023232
      px      :    -0.003432
      py      :    -0.000372

  2 H s       :     0.025002  s :     0.025002
      pz      :    -0.019430  p :    -0.023234
      px      :    -0.001137
      py      :    -0.002666

  3 H s       :     0.025002  s :     0.025002
      pz      :    -0.019430  p :    -0.023234
      px      :    -0.001137
      py      :    -0.002666

  4 C s       :     0.031499  s :     0.031499
      pz      :     0.938691  p :     0.974664
      px      :     0.017986
      py      :     0.017987
      dz2     :    -0.002295  d :    -0.004119
      dxz     :    -0.000000
      dyz     :    -0.000000
      dx2y2   :    -0.000912
      dxy     :    -0.000912

  5 H s       :    -0.025012  s :    -0.025012
      pz      :     0.019428  p :     0.023233
      px      :     0.003432
      py      :     0.000372

  6 H s       :    -0.025003  s :    -0.025003
      pz      :     0.019430  p :     0.023234
      px      :     0.001137
      py      :     0.002666

  7 H s       :    -0.025003  s :    -0.025003
      pz      :     0.019430  p :     0.023234
      px      :     0.001137
      py      :     0.002666



                      *****************************
                      * MAYER POPULATION ANALYSIS *
                      *****************************

  NA   - Mulliken gross atomic population
  ZA   - Total nuclear charge
  QA   - Mulliken gross atomic charge
  VA   - Mayer's total valence
  BVA  - Mayer's bonded valence
  FA   - Mayer's free valence

  ATOM       NA         ZA         QA         VA         BVA        FA
  0 C      6.1662     6.0000    -0.1662     3.9583     2.9852     0.9731
  1 H      0.9446     1.0000     0.0554     0.9861     0.9834     0.0028
  2 H      0.9446     1.0000     0.0554     0.9861     0.9833     0.0028
  3 H      0.9446     1.0000     0.0554     0.9861     0.9833     0.0028
  4 C      6.1662     6.0000    -0.1662     3.9583     2.9852     0.9731
  5 H      0.9446     1.0000     0.0554     0.9861     0.9834     0.0028
  6 H      0.9446     1.0000     0.0554     0.9861     0.9833     0.0028
  7 H      0.9446     1.0000     0.0554     0.9861     0.9833     0.0028

  Mayer bond orders larger than 0.100000
B(  0-C ,  1-H ) :   0.9931 B(  0-C ,  2-H ) :   0.9930 B(  0-C ,  3-H ) :   0.9930 
B(  4-C ,  5-H ) :   0.9931 B(  4-C ,  6-H ) :   0.9930 B(  4-C ,  7-H ) :   0.9930 


-------
TIMINGS
-------

Total SCF time: 0 days 0 hours 0 min 2 sec 

Total time                  ....       2.825 sec
Sum of individual times     ....       2.547 sec  ( 90.2%)

Fock matrix formation       ....       2.518 sec  ( 89.1%)
  Startup                   ....       0.001 sec  (  0.0% of F)
  Split-RI-J                ....       0.101 sec  (  4.0% of F)
  Chain of spheres X        ....       1.698 sec  ( 67.4% of F)
  XC integration            ....       0.957 sec  ( 38.0% of F)
    XC Preparation          ....       0.000 sec  (  0.0% of XC)
    Basis function eval.    ....       0.317 sec  ( 33.2% of XC)
    Density eval.           ....       0.185 sec  ( 19.3% of XC)
    XC-Functional eval.     ....       0.183 sec  ( 19.1% of XC)
    XC-Potential eval.      ....       0.175 sec  ( 18.3% of XC)
Diagonalization             ....       0.000 sec  (  0.0%)
Density matrix formation    ....       0.004 sec  (  0.1%)
Total Energy calculation    ....       0.001 sec  (  0.0%)
Population analysis         ....       0.009 sec  (  0.3%)
Orbital Transformation      ....       0.003 sec  (  0.1%)
Orbital Orthonormalization  ....       0.000 sec  (  0.0%)
DIIS solution               ....       0.002 sec  (  0.1%)
SOSCF solution              ....       0.010 sec  (  0.4%)
Finished LeanSCF after   6.8 sec

Maximum memory used throughout the entire LEANSCF-calculation: 7.4 MB

-------------------------   --------------------
FINAL SINGLE POINT ENERGY       -79.554376430893
-------------------------   --------------------


------------------------------------------------------------------------------
                              ORCA PROPERTY CALCULATIONS
------------------------------------------------------------------------------

GBWName                                 ... d3h-s.gbw
Number of atoms                         ...      8
Number of basis functions               ...     58
Max core memory                         ...   4096 MB

Electric properties:
Dipole moment                           ... YES
Quadrupole moment                       ...  NO
Static polarizability (Dipole/Dipole)   ...  NO
Static polarizability (Dipole/Quad.)    ...  NO
Static polarizability (Quad./Quad.)     ...  NO
Static polarizability (Velocity)        ...  NO
Static hyperpolarizability              ...  NO

Atomic electric properties:
Dipole moment                           ...  NO
Quadrupole moment                       ...  NO
Static polarizability                   ...  NO

Choice of electric origin               ... Center of mass
Position of electric origin             ...     0.000000    -0.000000    -0.000000

General magnetic properties:
Magnetizability                         ...  NO

EPR properties:
g-Tensor (aka g-matrix)                 ...  NO
Zero-Field splitting spin-orbit         ...  NO
Zero-field splitting spin-spin          ...  NO
Hyperfine couplings                     ...  NO (   0 nuclei)
Quadrupole couplings                    ...  NO (   0 nuclei)
Contact density                         ...  NO (   0 nuclei)

NMR properties:
Chemical shifts                         ...  NO (   0 nuclei)
Spin-rotation constants                 ...  NO (   0 nuclei)
Spin-spin couplings                     ...  NO (   0 nuclei,    0 pairs)

Choice of magnetic origin               ... GIAO
Position of magnetic origin             ...     0.000000     0.000000     0.000000

Properties with geometric perturbations:
SCF Hessian                             ...  NO
IR spectrum                             ...  NO
VCD spectrum                            ...  NO
X-ray spectroscopy properties:
SCF XES/XAS/RIXS spectra                ...  NO

SCF SOC stabilization energy            ...  NO
Diagonal Born-Oppenheimer correction    ...  NO

-------------
DIPOLE MOMENT
-------------

Method             : SCF
Type of density    : Electron Density
Multiplicity       :   1
Irrep              :   0
Energy             :   -79.5543764308925745 Eh
Basis              : AO
                                X                 Y                 Z
Electronic contribution:      0.000147536       0.000000008       0.000002671
Nuclear contribution   :      0.000000000       0.000000000       0.000000000
                        -----------------------------------------
Total Dipole Moment    :      0.000147536       0.000000008       0.000002671
                        -----------------------------------------
Magnitude (a.u.)       :      0.000147560
Magnitude (Debye)      :      0.000375067



--------------------
Rotational spectrum 
--------------------
 
Rotational constants in cm-1:             2.378825             0.108220             0.108219 
Rotational constants in MHz :         71315.383142          3244.343288          3244.331874 

Dipole components along the rotational axes: 
x,y,z [a.u.] :     0.000003    -0.000148    -0.000000 
x,y,z [Debye]:     0.000007    -0.000375    -0.000000 

 

Dipole moment calculation done in   0.0 sec 

Maximum memory used throughout the entire PROP-calculation: 4.1 MB

--------------------------------
SUGGESTED CITATIONS FOR THIS RUN
--------------------------------

Below you find a list of papers that are relevant to this ORCA run
We neither can nor want to force you to cite these papers, but we appreciate if you do
You receive ORCA, which is the product of decades of hard work by many enthusiastic individuals, for free
The only thing we kindly ask in return is that you cite our papers,
We deeply appreciate it, if you show your appreciation for ORCA by not just citing the generic ORCA reference.

Please note that relegating all ORCA citations to the supporting information does *not* help us.
SI sections are not indexed - citations you put there will not count into any citation statistics
But we need these citations in order to attract the funding resources that allow us to do what we are doing

Therefore, if you are a happy ORCA user, please consider citing a few of the papers listed below in the main body of your paper

In addition to the list printed below, the program has created the file d3h-s.bibtex that contains the list in bibtex format
You can import this file easily into all common literature databanks and citation aid programs


List of essential papers. We consider these as the minimum necessary citations

  1. Neese, F.
     Software update: the ORCA program system, version 6.0
     WIRES Comput. Molec. Sci. 2025 15(1), e70019
     doi.org/10.1002/wcms.7019

List of papers to cite with high priority. The work reported in these papers was absolutely
necessary for this run to complete.
Our perspective: the developers of density functionals and basis sets usually get cited in chemistry papers
Good! But without the algorithms to do something with them, the functionals or basis sets would not do anything.
Hence, in our opinion, the algorithm design and method developments papers are equally worthy of getting cited

  1. Neese, F.
     An improvement of the resolution of the identity approximation for the formation of the Coulomb matrix
     J. Comp. Chem. 2003 24(14), 1740-1747
     doi.org/10.1002/jcc.10318
  2. Neese, F.
     Definition of corresponding orbitals and the diradical character in broken symmetry DFT calculations on spin coupled systems
     J. Phys. Chem. Solids 2004 65(4), 781-785
     doi.org/10.1016/j.jpcs.2003.11.015
  3. Neese, F.; Wennmohs, F.; Hansen, A.; Becker, U.
     Efficient, approximate and parallel Hartree-Fock and hybrid DFT calculations. A 'chain-of-spheres' algorithm for the Hartree-Fock exchange
     Chem. Phys. 2009 356(1-3), 98-109
     doi.org/10.1016/j.chemphys.2008.10.036
  4. Helmich-Paris, B.; de Souza, B.; Neese, F.; Izsák, R.
     An improved chain of spheres for exchange algorithm
     J. Chem. Phys. 2021 155(10), 104109
     doi.org/10.1063/5.0058766
  5. Neese, F.
     The SHARK Integral Generation and Digestion System
     J. Comp. Chem. 2022 44(3), 381
     doi.org/10.1002/jcc.26942

List of suggested additional citations. These are papers that are important in the 'surrounding' of 
of this run, or papers that preceded the highly important papers. If you like your results we are grateful for a citation.

  1. Izsak, R.; Neese, F.
     An overlap fitted chain of spheres exchange method
     J. Chem. Phys. 2011 135 , 144105
     doi.org/10.1063/1.3646921
  2. Izsak, R.; Hansen, A.; Neese, F.
     The resolution of identity and chain of spheres approximations for the LPNO-CCSD singles Fock term
     Molec. Phys. 2012 110 , 2413-2417
     doi.org/10.1080/00268976.2012.687466
  3. Neese, F.
     The ORCA program system
     WIRES Comput. Molec. Sci. 2012 2(1), 73-78
     doi.org/10.1002/wcms.81
  4. Izsak, R.; Neese, F.; Klopper, W.
     Robust fitting techniques in the chain of spheres approximation to the Fock exchange: The role of the complementary space
     J. Chem. Phys. 2013 139 , 
     doi.org/10.1063/1.4819264
  5. Neese, F.
     Software update: the ORCA program system, version 4.0
     WIRES Comput. Molec. Sci. 2018 8(1), 1-6
     doi.org/10.1002/wcms.1327
  6. Neese, F.; Wennmohs, F.; Becker, U.; Riplinger, C.
     The ORCA quantum chemistry program package
     J. Chem. Phys. 2020 152(22), 224108
     doi.org/10.1063/5.0004608
  7. Neese, F.
     Software update: The ORCA program system—Version 5.0
     WIRES Comput. Molec. Sci. 2022 12(1), e1606
     doi.org/10.1002/wcms.1606

List of optional additional citations

  1. Neese, F.
     Approximate second-order SCF convergence for spin unrestricted wavefunctions
     Chem. Phys. Lett. 2000 325(1-3), 93-98
     doi.org/10.1016/s0009-2614(00)00662-x

Timings for individual modules:

Sum of individual times          ...        7.556 sec (=   0.126 min)
Startup calculation              ...        0.507 sec (=   0.008 min)   6.7 %
SCF iterations                   ...        6.952 sec (=   0.116 min)  92.0 %
Property calculations            ...        0.097 sec (=   0.002 min)   1.3 %
                             ****ORCA TERMINATED NORMALLY****
TOTAL RUN TIME: 0 days 0 hours 0 minutes 7 seconds 886 msec
